ITEM: TIMESTEP
	0
ITEM: NUMBER OF ATOMS
	193
ITEM: BOX BOUNDS
	0	97
	0	99
	0	101
ITEM: ATOMS id type x y z V SIA fia1 fia2 radius time
	1	1	64.1042	91.6533	31.6752	1	0	0	0	0.832373	0
	2	1	59.748	37.8978	28.9301	1	0	0	0	0.832373	0
	3	1	18.2006	0.780005	17.8284	1	0	0	0	0.832373	0
	4	1	86.0431	2.90059	5.27301	1	0	0	0	0.832373	0
	5	1	39.6655	6.64682	21.4504	1	0	0	0	0.832373	0
	6	1	81.5666	34.6631	41.7264	1	0	0	0	0.832373	0
	7	1	92.6063	21.0189	61.9663	1	0	0	0	0.832373	0
	8	1	72.3222	85.2281	27.1663	1	0	0	0	0.832373	0
	9	1	53.9749	36.5552	63.7196	1	0	0	0	0.832373	0
	10	1	14.9868	45.371	86.0715	1	0	0	0	0.832373	0
	11	1	61.8811	94.7461	23.0344	1	0	0	0	0.832373	0
	12	1	39.7132	54.7686	68.8081	1	0	0	0	0.832373	0
	13	1	68.3776	26.1227	46.2931	1	0	0	0	0.832373	0
	14	1	85.4722	19.1008	5.90264	1	0	0	0	0.832373	0
	15	1	18.9752	82.1495	8.84497	1	0	0	0	0.832373	0
	16	1	52.7289	60.7295	1.72737	1	0	0	0	0.832373	0
	17	1	63.0708	50.6093	49.3201	1	0	0	0	0.832373	0
	18	1	19.475	11.0721	47.6596	1	0	0	0	0.832373	0
	19	1	12.1553	52.0839	51.3917	1	0	0	0	0.832373	0
	20	1	46.4683	52.3945	60.4058	1	0	0	0	0.832373	0
	21	1	19.273	80.1418	79.2161	1	0	0	0	0.832373	0
	22	1	96.3636	42.9515	36.337	1	0	0	0	0.832373	0
	23	1	10.3523	6.88856	21.3109	1	0	0	0	0.832373	0
	24	1	76.0662	43.0677	88.1324	1	0	0	0	0.832373	0
	25	1	61.1947	62.4451	33.4175	1	0	0	0	0.832373	0
	26	1	29.2347	63.4608	46.5312	1	0	0	0	0.832373	0
	27	1	11.6057	51.7686	88.5039	1	0	0	0	0.832373	0
	28	1	76.3509	19.3034	72.7986	1	0	0	0	0.832373	0
	29	1	43.4054	94.8346	59.7279	1	0	0	0	0.832373	0
	30	1	47.2756	1.00689	56.4903	1	0	0	0	0.832373	0
	31	1	66.5164	2.06395	28.2618	1	0	0	0	0.832373	0
	32	1	92.2314	67.6097	61.5293	1	0	0	0	0.832373	0
	33	1	94.6608	15.6651	71.8334	1	0	0	0	0.832373	0
	34	1	81.9647	58.4405	31.0511	1	0	0	0	0.832373	0
	35	1	21.5053	66.9939	88.4281	1	0	0	0	0.832373	0
	36	1	47.8477	27.7829	81.4067	1	0	0	0	0.832373	0
	37	1	2.06055	92.7045	55.2432	1	0	0	0	0.832373	0
	38	1	37.7301	45.9343	8.45088	1	0	0	0	0.832373	0
	39	1	29.6621	32.1061	46.9418	1	0	0	0	0.832373	0
	40	1	25.1081	32.7981	62.6246	1	0	0	0	0.832373	0
	41	1	61.6962	17.4111	11.0024	1	0	0	0	0.832373	0
	42	1	56.5745	36.2812	71.4756	1	0	0	0	0.832373	0
	43	1	61.5366	42.8445	25.9186	1	0	0	0	0.832373	0
	44	1	36.4928	25.4587	48.8066	1	0	0	0	0.832373	0
	45	1	6.71623	14.3293	29.2004	1	0	0	0	0.832373	0
	46	1	86.5346	22.6241	65.8567	1	0	0	0	0.832373	0
	47	1	31.3882	68.9665	7.59172	1	0	0	0	0.832373	0
	48	1	85.5902	92.9535	68.4968	1	0	0	0	0.832373	0
	49	1	15.1202	66.6493	56.4939	1	0	0	0	0.832373	0
	50	1	77.9835	48.8273	11.4215	1	0	0	0	0.832373	0
	51	1	27.9074	29.981	34.1361	1	0	0	0	0.832373	0
	52	1	33.6069	8.3331	84.0421	1	0	0	0	0.832373	0
	53	1	26.2317	41.8486	30.9328	1	0	0	0	0.832373	0
	54	1	38.5815	2.33539	14.1204	1	0	0	0	0.832373	0
	55	1	32.1295	46.9862	100.899	1	0	0	0	0.832373	0
	56	1	24.7308	15.9273	27.4601	1	0	0	0	0.832373	0
	57	1	94.7545	18.6714	94.8242	1	0	0	0	0.832373	0
	58	1	76.2293	10.2557	27.2006	1	0	0	0	0.832373	0
	59	1	28.0016	2.98573	99.5844	1	0	0	0	0.832373	0
	60	1	85.3958	41.5264	92.756	1	0	0	0	0.832373	0
	61	1	83.4397	74.424	44.7162	1	0	0	0	0.832373	0
	62	1	77.9123	59.9613	70.2921	1	0	0	0	0.832373	0
	63	1	33.2172	38.3367	28.6551	1	0	0	0	0.832373	0
	64	1	77.0277	9.28518	92.8796	1	0	0	0	0.832373	0
	65	1	19.1069	2.15762	86.7219	1	0	0	0	0.832373	0
	66	1	58.4387	65.8864	35.1124	1	0	0	0	0.832373	0
	67	1	32.8769	98.6799	89.3623	1	0	0	0	0.832373	0
	68	1	16.0411	33.2785	26.2392	1	0	0	0	0.832373	0
	69	1	70.8892	89.4833	75.4662	1	0	0	0	0.832373	0
	70	1	42.1395	71.8157	82.0834	1	0	0	0	0.832373	0
	71	1	30.039	89.5291	43.4903	1	0	0	0	0.832373	0
	72	1	85.5528	34.0021	25.7807	1	0	0	0	0.832373	0
	73	1	1.36238	72.5322	64.6683	1	0	0	0	0.832373	0
	74	1	28.686	70.861	13.568	1	0	0	0	0.832373	0
	75	1	57.4626	58.0534	14.9622	1	0	0	0	0.832373	0
	76	1	81.5255	98.9238	99.6653	1	0	0	0	0.832373	0
	77	1	36.6849	98.9043	78.7838	1	0	0	0	0.832373	0
	78	1	4.692	46.1222	87.9496	1	0	0	0	0.832373	0
	79	1	62.604	16.1766	36.9757	1	0	0	0	0.832373	0
	80	1	12.1648	8.54388	28.5545	1	0	0	0	0.832373	0
	81	1	41.821	11.4525	15.5509	1	0	0	0	0.832373	0
	82	1	40.8775	79.8037	23.0557	1	0	0	0	0.832373	0
	83	1	69.4537	89.3071	6.07888	1	0	0	0	0.832373	0
	84	1	57.5868	88.2764	96.5324	1	0	0	0	0.832373	0
	85	1	9.43961	65.0768	97.4276	1	0	0	0	0.832373	0
	86	1	10.2333	50.3336	5.87492	1	0	0	0	0.832373	0
	87	1	56.1638	53.1733	84.4203	1	0	0	0	0.832373	0
	88	1	75.4591	73.0393	50.6956	1	0	0	0	0.832373	0
	89	1	31.0638	24.5391	94.5304	1	0	0	0	0.832373	0
	90	1	65.7177	30.6439	56.3845	1	0	0	0	0.832373	0
	91	1	87.1585	45.753	54.6836	1	0	0	0	0.832373	0
	92	1	10.7888	31.5432	23.4832	1	0	0	0	0.832373	0
	93	1	86.5478	13.95	77.7502	1	0	0	0	0.832373	0
	94	1	22.26	76.1061	91.1691	1	0	0	0	0.832373	0
	95	1	14.8685	73.68	2.98405	1	0	0	0	0.832373	0
	96	1	12.3576	46.248	26.3485	1	0	0	0	0.832373	0
	97	1	40.6556	80.8328	17.4533	1	0	0	0	0.832373	0
	98	1	32.7404	7.82982	76.6189	1	0	0	0	0.832373	0
	99	1	78.9478	89.7564	35.701	1	0	0	0	0.832373	0
	100	1	87.8542	74.6179	38.836	1	0	0	0	0.832373	0
	101	1	52.9082	4.63621	61.4036	1	0	0	0	0.832373	0
	102	1	41.5221	43.3545	35.3272	1	0	0	0	0.832373	0
	103	1	41.4268	33.7857	57.1312	1	0	0	0	0.832373	0
	104	1	94.2484	76.1997	31.1311	1	0	0	0	0.832373	0
	105	1	21.3227	22.5445	54.4544	1	0	0	0	0.832373	0
	106	1	48.238	14.4175	15.0131	1	0	0	0	0.832373	0
	107	1	48.9232	13.9027	25.47	1	0	0	0	0.832373	0
	108	1	89.8967	36.7034	24.6666	1	0	0	0	0.832373	0
	109	1	47.6921	78.7827	56.1426	1	0	0	0	0.832373	0
	110	1	83.3637	76.2037	63.4577	1	0	0	0	0.832373	0
	111	1	58.6151	69.6411	82.0405	1	0	0	0	0.832373	0
	112	1	45.8822	14.9686	64.4308	1	0	0	0	0.832373	0
	113	1	15.7884	94.892	7.43809	1	0	0	0	0.832373	0
	114	1	64.3172	30.1629	27.7141	1	0	0	0	0.832373	0
	115	1	44.951	57.9642	2.05154	1	0	0	0	0.832373	0
	116	1	77.9282	0.696273	15.7806	1	0	0	0	0.832373	0
	117	1	53.0171	27.5956	35.829	1	0	0	0	0.832373	0
	118	1	52.4938	32.3657	68.294	1	0	0	0	0.832373	0
	119	1	48.2081	72.9657	26.2316	1	0	0	0	0.832373	0
	120	1	59.5326	28.6052	13.8384	1	0	0	0	0.832373	0
	121	1	18.6105	18.8438	56.8689	1	0	0	0	0.832373	0
	122	1	47.3387	11.8814	45.1585	1	0	0	0	0.832373	0
	123	1	38.1147	84.4701	94.6706	1	0	0	0	0.832373	0
	124	1	15.0911	63.151	11.355	1	0	0	0	0.832373	0
	125	1	96.002	94.2103	31.471	1	0	0	0	0.832373	0
	126	1	36.8792	9.98665	90.1027	1	0	0	0	0.832373	0
	127	1	42.8156	95.9706	31.2582	1	0	0	0	0.832373	0
	128	1	83.6168	64.1951	74.4618	1	0	0	0	0.832373	0
	129	1	64.5586	54.853	36.47	1	0	0	0	0.832373	0
	130	1	76.5162	77.2575	78.4632	1	0	0	0	0.832373	0
	131	1	81.2021	59.1072	8.86401	1	0	0	0	0.832373	0
	132	1	20.0098	36.3873	50.9203	1	0	0	0	0.832373	0
	133	1	17.3807	2.10663	40.7198	1	0	0	0	0.832373	0
	134	1	79.2381	47.1593	47.4763	1	0	0	0	0.832373	0
	135	1	23.4023	94.5354	64.9518	1	0	0	0	0.832373	0
	136	1	70.8857	69.2771	45.8389	1	0	0	0	0.832373	0
	137	1	56.5974	11.7671	22.3543	1	0	0	0	0.832373	0
	138	1	51.1837	2.97582	72.7479	1	0	0	0	0.832373	0
	139	1	87.3235	56.8872	67.1554	1	0	0	0	0.832373	0
	140	1	65.532	25.223	18.6794	1	0	0	0	0.832373	0
	141	1	78.9971	68.2242	54.8482	1	0	0	0	0.832373	0
	142	1	70.6548	41.0721	62.7091	1	0	0	0	0.832373	0
	143	1	51.2148	32.6323	97.8144	1	0	0	0	0.832373	0
	144	1	56.8497	66.459	65.3109	1	0	0	0	0.832373	0
	145	1	40.363	53.4537	12.1662	1	0	0	0	0.832373	0
	146	1	11.2671	28.1411	30.8133	1	0	0	0	0.832373	0
	147	1	88.4774	55.8716	56.436	1	0	0	0	0.832373	0
	148	1	37.4432	18.5427	95.0278	1	0	0	0	0.832373	0
	149	1	12.1723	97.352	28.8882	1	0	0	0	0.832373	0
	150	1	27.7955	12.7451	93.0968	1	0	0	0	0.832373	0
	151	1	75.6888	10.9277	47.888	1	0	0	0	0.832373	0
	152	1	83.4977	0.310876	78.2819	1	0	0	0	0.832373	0
	153	1	2.00258	86.5254	3.52782	1	0	0	0	0.832373	0
	154	1	35.0937	67.4128	34.5401	1	0	0	0	0.832373	0
	155	1	60.501	57.0589	71.5008	1	0	0	0	0.832373	0
	156	1	21.2843	43.3485	53.9898	1	0	0	0	0.832373	0
	157	1	28.125	28.2423	4.46022	1	0	0	0	0.832373	0
	158	1	95.4484	37.6262	47.2302	1	0	0	0	0.832373	0
	159	1	3.03879	76.5709	33.0595	1	0	0	0	0.832373	0
	160	1	40.7044	35.3218	9.65034	1	0	0	0	0.832373	0
	161	1	50.1064	72.2908	77.6533	1	0	0	0	0.832373	0
	162	1	4.05227	15.9769	78.7556	1	0	0	0	0.832373	0
	163	1	48.7588	16.0318	4.65457	1	0	0	0	0.832373	0
	164	1	25.1985	28.9195	81.6706	1	0	0	0	0.832373	0
	165	1	82.425	21.9919	92.4751	1	0	0	0	0.832373	0
	166	1	21.4233	50.7448	70.3217	1	0	0	0	0.832373	0
	167	1	54.1407	36.0839	0.170662	1	0	0	0	0.832373	0
	168	1	28.6142	18.6523	27.1968	1	0	0	0	0.832373	0
	169	1	96.8878	1.58648	100.621	1	0	0	0	0.832373	0
	170	1	51.0276	92.6267	33.9587	1	0	0	0	0.832373	0
	171	1	85.9742	10.585	6.97319	1	0	0	0	0.832373	0
	172	1	91.7889	74.9435	34.968	1	0	0	0	0.832373	0
	173	1	11.6575	2.05829	13.0425	1	0	0	0	0.832373	0
	174	1	0.966521	60.2604	42.0893	1	0	0	0	0.832373	0
	175	1	22.9624	5.69187	44.6824	1	0	0	0	0.832373	0
	176	1	26.507	7.43527	52.2487	1	0	0	0	0.832373	0
	177	1	0.8088	20.1132	42.7646	1	0	0	0	0.832373	0
	178	1	85.0949	73.0665	83.6062	1	0	0	0	0.832373	0
	179	1	66.7814	26.5042	41.0337	1	0	0	0	0.832373	0
	180	1	9.88325	39.2681	42.8794	1	0	0	0	0.832373	0
	181	1	3.57976	85.0851	93.6199	1	0	0	0	0.832373	0
	182	1	1.74492	12.0068	42.6256	1	0	0	0	0.832373	0
	183	1	95.0222	84.2599	44.514	1	0	0	0	0.832373	0
	184	1	28.1903	54.4369	26.5434	1	0	0	0	0.832373	0
	185	1	71.2962	74.9703	80.5969	1	0	0	0	0.832373	0
	186	1	94.6434	6.36131	49.3978	1	0	0	0	0.832373	0
	187	1	57.8477	98.5982	5.99241	1	0	0	0	0.832373	0
	188	1	4.10211	74.474	67.491	1	0	0	0	0.832373	0
	189	1	38.655	75.3857	38.5276	1	0	0	0	0.832373	0
	190	1	20.7754	56.7912	38.3448	1	0	0	0	0.832373	0
	191	1	49.9351	73.5374	55.1796	1	0	0	0	0.832373	0
	192	1	31.374	93.4453	47.9647	1	0	0	0	0.832373	0
	193	1	74.3191	13.5206	8.43859	1	0	0	0	0.832373	0
ITEM: TIMESTEP
	805336
ITEM: NUMBER OF ATOMS
	194
ITEM: BOX BOUNDS
	0	97
	0	99
	0	101
ITEM: ATOMS id type x y z V SIA fia1 fia2 radius time
	6	1	81.5666	34.6631	41.7264	1	0	0	0	0.832373	1.00722e-005
	7	1	92.6063	21.0189	61.9663	1	0	0	0	0.832373	1.00722e-005
	9	1	53.9749	36.5552	63.7196	1	0	0	0	0.832373	1.00722e-005
	10	1	14.9868	45.371	86.0715	1	0	0	0	0.832373	1.00722e-005
	12	1	39.7132	54.7686	68.8081	1	0	0	0	0.832373	1.00722e-005
	13	1	68.3776	26.1227	46.2931	1	0	0	0	0.832373	1.00722e-005
	17	1	63.0708	50.6093	49.3201	1	0	0	0	0.832373	1.00722e-005
	18	1	19.475	11.0721	47.6596	1	0	0	0	0.832373	1.00722e-005
	19	1	12.1553	52.0839	51.3917	1	0	0	0	0.832373	1.00722e-005
	20	1	46.4683	52.3945	60.4058	1	0	0	0	0.832373	1.00722e-005
	21	1	19.773	79.6418	79.7161	1	0	0	0	0.832373	1.00722e-005
	22	1	95.8636	42.4515	36.837	1	0	0	0	0.832373	1.00722e-005
	23	1	10.3523	6.88856	21.3109	1	0	0	0	0.832373	1.00722e-005
	24	1	76.0662	43.0677	88.1324	1	0	0	0	0.832373	1.00722e-005
	25	1	61.1947	62.4451	33.4175	1	0	0	0	0.832373	1.00722e-005
	26	1	29.2347	63.4608	46.5312	1	0	0	0	0.832373	1.00722e-005
	27	1	11.6057	51.7686	88.5039	1	0	0	0	0.832373	1.00722e-005
	28	1	75.8509	18.8034	72.2986	1	0	0	0	0.832373	1.00722e-005
	29	1	43.4054	94.8346	59.7279	1	0	0	0	0.832373	1.00722e-005
	30	1	47.2756	1.00689	56.4903	1	0	0	0	0.832373	1.00722e-005
	32	1	92.2314	67.6097	61.5293	1	0	0	0	0.832373	1.00722e-005
	33	1	94.6608	15.6651	71.8334	1	0	0	0	0.832373	1.00722e-005
	34	1	81.9647	58.4405	31.0511	1	0	0	0	0.832373	1.00722e-005
	35	1	21.5053	66.9939	88.4281	1	0	0	0	0.832373	1.00722e-005
	36	1	47.8477	27.7829	81.4067	1	0	0	0	0.832373	1.00722e-005
	37	1	2.06055	92.7045	55.2432	1	0	0	0	0.832373	1.00722e-005
	39	1	29.6621	32.1061	46.9418	1	0	0	0	0.832373	1.00722e-005
	40	1	25.1081	32.7981	62.6246	1	0	0	0	0.832373	1.00722e-005
	42	1	56.5745	36.2812	71.4756	1	0	0	0	0.832373	1.00722e-005
	44	1	36.4928	25.4587	47.8066	1	0	0	0	0.832373	1.00722e-005
	46	1	86.5346	22.6241	65.8567	1	0	0	0	0.832373	1.00722e-005
	47	1	31.3882	68.9665	7.59172	1	0	0	0	0.832373	1.00722e-005
	48	1	85.5902	92.9535	68.4968	1	0	0	0	0.832373	1.00722e-005
	49	1	15.1202	66.6493	56.4939	1	0	0	0	0.832373	1.00722e-005
	51	1	27.9074	29.981	34.1361	1	0	0	0	0.832373	1.00722e-005
	52	1	33.6069	8.3331	84.0421	1	0	0	0	0.832373	1.00722e-005
	53	1	26.2317	41.8486	30.9328	1	0	0	0	0.832373	1.00722e-005
	55	1	32.1295	46.9862	100.899	1	0	0	0	0.832373	1.00722e-005
	57	1	94.7545	18.6714	94.8242	1	0	0	0	0.832373	1.00722e-005
	58	1	76.2293	10.2557	27.2006	1	0	0	0	0.832373	1.00722e-005
	59	1	28.0016	2.98573	99.5844	1	0	0	0	0.832373	1.00722e-005
	60	1	85.8958	42.0264	92.256	1	0	0	0	0.832373	1.00722e-005
	61	1	83.4397	74.424	44.7162	1	0	0	0	0.832373	1.00722e-005
	62	1	77.9123	59.9613	70.2921	1	0	0	0	0.832373	1.00722e-005
	63	1	33.2172	38.3367	28.6551	1	0	0	0	0.832373	1.00722e-005
	64	1	77.0277	9.28518	92.8796	1	0	0	0	0.832373	1.00722e-005
	65	1	19.1069	2.15762	86.7219	1	0	0	0	0.832373	1.00722e-005
	66	1	58.4387	65.8864	35.1124	1	0	0	0	0.832373	1.00722e-005
	67	1	32.3769	98.1799	89.8623	1	0	0	0	0.832373	1.00722e-005
	69	1	70.8892	89.4833	75.4662	1	0	0	0	0.832373	1.00722e-005
	70	1	42.1395	71.8157	82.0834	1	0	0	0	0.832373	1.00722e-005
	73	1	1.36238	72.5322	64.6683	1	0	0	0	0.832373	1.00722e-005
	75	1	57.4626	58.0534	14.9622	1	0	0	0	0.832373	1.00722e-005
	76	1	81.5255	98.9238	99.6653	1	0	0	0	0.832373	1.00722e-005
	77	1	36.6849	98.9043	78.7838	1	0	0	0	0.832373	1.00722e-005
	78	1	4.692	46.1222	87.9496	1	0	0	0	0.832373	1.00722e-005
	80	1	12.1648	8.54388	28.5545	1	0	0	0	0.832373	1.00722e-005
	84	1	57.5868	88.2764	96.5324	1	0	0	0	0.832373	1.00722e-005
	85	1	9.43961	65.0768	97.4276	1	0	0	0	0.832373	1.00722e-005
	87	1	56.1638	53.1733	84.4203	1	0	0	0	0.832373	1.00722e-005
	88	1	75.4591	73.0393	50.6956	1	0	0	0	0.832373	1.00722e-005
	89	1	31.0638	24.5391	94.5304	1	0	0	0	0.832373	1.00722e-005
	90	1	65.7177	30.6439	56.3845	1	0	0	0	0.832373	1.00722e-005
	91	1	86.6585	45.253	55.1836	1	0	0	0	0.832373	1.00722e-005
	92	1	10.7888	31.5432	23.4832	1	0	0	0	0.832373	1.00722e-005
	93	1	86.5478	13.95	77.7502	1	0	0	0	0.832373	1.00722e-005
	94	1	22.26	76.1061	91.1691	1	0	0	0	0.832373	1.00722e-005
	96	1	12.3576	46.248	26.3485	1	0	0	0	0.832373	1.00722e-005
	97	1	40.6556	80.8328	17.4533	1	0	0	0	0.832373	1.00722e-005
	98	1	32.7404	7.82982	76.6189	1	0	0	0	0.832373	1.00722e-005
	100	1	87.8542	74.6179	38.836	1	0	0	0	0.832373	1.00722e-005
	101	1	52.9082	4.63621	61.4036	1	0	0	0	0.832373	1.00722e-005
	102	1	41.5221	43.3545	35.3272	1	0	0	0	0.832373	1.00722e-005
	103	1	41.4268	33.7857	57.1312	1	0	0	0	0.832373	1.00722e-005
	104	1	94.2484	76.1997	31.1311	1	0	0	0	0.832373	1.00722e-005
	105	1	21.3227	22.5445	54.4544	1	0	0	0	0.832373	1.00722e-005
	106	1	48.238	14.4175	15.0131	1	0	0	0	0.832373	1.00722e-005
	107	1	48.9232	13.9027	25.47	1	0	0	0	0.832373	1.00722e-005
	110	1	83.3637	76.2037	63.4577	1	0	0	0	0.832373	1.00722e-005
	111	1	58.6151	69.6411	82.0405	1	0	0	0	0.832373	1.00722e-005
	112	1	45.8822	14.9686	64.4308	1	0	0	0	0.832373	1.00722e-005
	117	1	53.0171	27.5956	35.829	1	0	0	0	0.832373	1.00722e-005
	118	1	52.4938	32.3657	68.294	1	0	0	0	0.832373	1.00722e-005
	121	1	18.6105	18.8438	56.8689	1	0	0	0	0.832373	1.00722e-005
	122	1	47.3387	11.8814	45.1585	1	0	0	0	0.832373	1.00722e-005
	123	1	38.1147	84.4701	94.6706	1	0	0	0	0.832373	1.00722e-005
	124	1	15.0911	63.151	11.355	1	0	0	0	0.832373	1.00722e-005
	125	1	96.002	94.2103	31.471	1	0	0	0	0.832373	1.00722e-005
	126	1	36.8792	9.98665	90.1027	1	0	0	0	0.832373	1.00722e-005
	127	1	42.8156	95.9706	31.2582	1	0	0	0	0.832373	1.00722e-005
	128	1	83.6168	64.1951	74.4618	1	0	0	0	0.832373	1.00722e-005
	130	1	76.5162	77.2575	78.4632	1	0	0	0	0.832373	1.00722e-005
	132	1	20.5098	36.8873	51.4203	1	0	0	0	0.832373	1.00722e-005
	134	1	79.2381	47.1593	47.4763	1	0	0	0	0.832373	1.00722e-005
	135	1	23.4023	94.5354	64.9518	1	0	0	0	0.832373	1.00722e-005
	136	1	70.3857	69.7771	46.3389	1	0	0	0	0.832373	1.00722e-005
	137	1	56.5974	11.7671	22.3543	1	0	0	0	0.832373	1.00722e-005
	138	1	51.1837	2.97582	72.7479	1	0	0	0	0.832373	1.00722e-005
	139	1	87.3235	56.8872	67.1554	1	0	0	0	0.832373	1.00722e-005
	140	1	65.532	25.223	18.6794	1	0	0	0	0.832373	1.00722e-005
	141	1	78.9971	68.2242	54.8482	1	0	0	0	0.832373	1.00722e-005
	142	1	70.6548	41.0721	62.7091	1	0	0	0	0.832373	1.00722e-005
	143	1	52.7148	32.1323	96.3144	1	0	0	0	0.832373	1.00722e-005
	144	1	56.8497	66.459	65.3109	1	0	0	0	0.832373	1.00722e-005
	146	1	11.2671	28.1411	30.8133	1	0	0	0	0.832373	1.00722e-005
	147	1	88.4774	55.8716	56.436	1	0	0	0	0.832373	1.00722e-005
	148	1	37.4432	18.5427	95.0278	1	0	0	0	0.832373	1.00722e-005
	149	1	12.1723	97.352	28.8882	1	0	0	0	0.832373	1.00722e-005
	150	1	27.7955	12.7451	93.0968	1	0	0	0	0.832373	1.00722e-005
	151	1	75.6888	10.9277	47.888	1	0	0	0	0.832373	1.00722e-005
	152	1	83.4977	0.310876	78.2819	1	0	0	0	0.832373	1.00722e-005
	154	1	35.5937	67.9128	34.0401	1	0	0	0	0.832373	1.00722e-005
	155	1	60.501	57.0589	71.5008	1	0	0	0	0.832373	1.00722e-005
	156	1	21.2843	43.3485	53.9898	1	0	0	0	0.832373	1.00722e-005
	158	1	95.4484	37.6262	47.2302	1	0	0	0	0.832373	1.00722e-005
	161	1	50.1064	72.2908	77.6533	1	0	0	0	0.832373	1.00722e-005
	162	1	4.05227	15.9769	78.7556	1	0	0	0	0.832373	1.00722e-005
	163	1	48.7588	16.0318	4.65457	1	0	0	0	0.832373	1.00722e-005
	164	1	25.1985	28.9195	81.6706	1	0	0	0	0.832373	1.00722e-005
	165	1	82.425	21.9919	92.4751	1	0	0	0	0.832373	1.00722e-005
	166	1	21.4233	50.7448	70.3217	1	0	0	0	0.832373	1.00722e-005
	167	1	54.1407	36.0839	0.170662	1	0	0	0	0.832373	1.00722e-005
	169	1	96.8878	1.58648	100.621	1	0	0	0	0.832373	1.00722e-005
	170	1	51.5276	93.1267	34.4587	1	0	0	0	0.832373	1.00722e-005
	171	1	85.9742	10.585	6.97319	1	0	0	0	0.832373	1.00722e-005
	175	1	22.9624	5.69187	44.6824	1	0	0	0	0.832373	1.00722e-005
	176	1	26.507	7.43527	52.2487	1	0	0	0	0.832373	1.00722e-005
	177	1	0.8088	20.1132	42.7646	1	0	0	0	0.832373	1.00722e-005
	178	1	85.5949	73.5665	84.1062	1	0	0	0	0.832373	1.00722e-005
	179	1	66.7814	26.5042	41.0337	1	0	0	0	0.832373	1.00722e-005
	180	1	9.38325	38.7681	42.3794	1	0	0	0	0.832373	1.00722e-005
	181	1	3.57976	85.0851	93.6199	1	0	0	0	0.832373	1.00722e-005
	182	1	1.74492	12.0068	42.6256	1	0	0	0	0.832373	1.00722e-005
	183	1	94.5222	84.7599	45.014	1	0	0	0	0.832373	1.00722e-005
	184	1	28.1903	54.4369	26.5434	1	0	0	0	0.832373	1.00722e-005
	185	1	71.2962	74.9703	80.5969	1	0	0	0	0.832373	1.00722e-005
	186	1	94.6434	6.36131	49.3978	1	0	0	0	0.832373	1.00722e-005
	188	1	4.60211	73.974	67.991	1	0	0	0	0.832373	1.00722e-005
	191	1	49.9351	73.5374	55.1796	1	0	0	0	0.832373	1.00722e-005
	192	1	31.374	93.4453	47.9647	1	0	0	0	0.832373	1.00722e-005
	204	7	17.3807	2.10663	40.7198	1	0	0	1	0.832373	1.00722e-005
	213	7	61.6962	17.4111	11.0024	1	0	0	1	0.832373	1.00722e-005
	222	7	59.748	37.8978	28.9301	1	0	0	1	0.832373	1.00722e-005
	226	7	47.6921	78.7827	56.1426	1	0	0	1	0.832373	1.00722e-005
	230	7	16.0411	33.2785	26.2392	1	0	0	1	0.832373	1.00722e-005
	258	7	3.03879	76.5709	33.0595	1	0	0	1	0.832373	1.00722e-005
	265	7	18.9752	82.1495	8.84497	1	0	0	2	0.832373	1.00722e-005
	282	7	61.5366	42.8445	25.9186	1	0	0	2	0.832373	1.00722e-005
	285	7	81.2021	59.1072	8.86401	1	0	0	1	0.832373	1.00722e-005
	292	7	28.686	70.861	13.568	1	0	0	1	0.832373	1.00722e-005
	304	7	20.7754	56.7912	38.3448	1	0	0	1	0.832373	1.00722e-005
	308	7	41.821	11.4525	15.5509	1	0	0	2	0.832373	1.00722e-005
	310	7	37.7301	45.9343	8.45088	1	0	0	3	0.832373	1.00722e-005
	318	7	6.71623	14.3293	29.2004	1	0	0	1	0.832373	1.00722e-005
	321	7	57.8477	98.5982	5.99241	1	0	0	1	0.832373	1.00722e-005
	347	7	62.604	16.1766	36.9757	1	0	0	2	0.832373	1.00722e-005
	363	7	77.9835	48.8273	11.4215	1	0	0	1	0.832373	1.00722e-005
	374	7	86.0431	2.90059	5.27301	1	0	0	1	0.832373	1.00722e-005
	377	7	48.2081	72.9657	26.2316	1	0	0	1	0.832373	1.00722e-005
	388	7	64.3172	30.1629	27.7141	1	0	0	2	0.832373	1.00722e-005
	394	7	38.5815	2.33539	14.1204	1	0	0	1	0.832373	1.00722e-005
	400	7	40.8775	79.8037	23.0557	1	0	0	2	0.832373	1.00722e-005
	411	7	11.6575	2.05829	13.0425	1	0	0	1	0.832373	1.00722e-005
	413	7	18.2006	0.780005	17.8284	1	0	0	1	0.832373	1.00722e-005
	419	7	64.5586	54.853	36.47	1	0	0	1	0.832373	1.00722e-005
	432	7	15.7884	94.892	7.43809	1	0	0	2	0.832373	1.00722e-005
	434	7	72.3222	85.2281	27.1663	1	0	0	1	0.832373	1.00722e-005
	437	7	30.039	89.5291	43.4903	1	0	0	2	0.832373	1.00722e-005
	445	7	77.9282	0.696273	15.7806	1	0	0	3	0.832373	1.00722e-005
	448	7	85.4722	19.1008	5.90264	1	0	0	2	0.832373	1.00722e-005
	450	7	28.125	28.2423	4.46022	1	0	0	2	0.832373	1.00722e-005
	452	7	44.951	57.9642	2.05154	1	0	0	2	0.832373	1.00722e-005
	469	7	40.363	53.4537	12.1662	1	0	0	2	0.832373	1.00722e-005
	482	7	39.6655	6.64682	21.4504	1	0	0	1	0.832373	1.00722e-005
	490	7	74.3191	13.5206	8.43859	1	0	0	4	0.832373	1.00722e-005
	494	1	52.7289	60.7295	1.72737	1	0	0	0	0.832373	1.00722e-005
	498	7	78.9478	89.7564	35.701	1	0	0	3	0.832373	1.00722e-005
	507	7	61.8811	94.7461	23.0344	1	0	0	1	0.832373	1.00722e-005
	509	7	24.7308	15.9273	27.4601	1	0	0	2	0.832373	1.00722e-005
	525	7	85.5528	34.0021	25.7807	1	0	0	2	0.832373	1.00722e-005
	527	7	10.2333	50.3336	5.87492	1	0	0	3	0.832373	1.00722e-005
	538	7	38.655	75.3857	38.5276	1	0	0	1	0.832373	1.00722e-005
	539	7	64.1042	91.6533	31.6752	1	0	0	1	0.832373	1.00722e-005
	542	7	89.8967	36.7034	24.6666	1	0	0	1	0.832373	1.00722e-005
	544	7	66.5164	2.06395	28.2618	1	0	0	1	0.832373	1.00722e-005
	546	7	14.8685	73.68	2.98405	1	0	0	2	0.832373	1.00722e-005
	549	7	40.7044	35.3218	9.65034	1	0	0	6	0.832373	1.00722e-005
	558	7	59.5326	28.6052	13.8384	1	0	0	2	0.832373	1.00722e-005
	559	7	0.966521	60.2604	42.0893	1	0	0	1	0.832373	1.00722e-005
	562	7	69.4537	89.3071	6.07888	1	0	0	5	0.832373	1.00722e-005
	564	7	91.7889	74.9435	34.968	1	0	0	1	0.832373	1.00722e-005
	566	7	28.6142	18.6523	27.1968	1	0	0	2	0.832373	1.00722e-005
	578	7	2.00258	86.5254	3.52782	1	0	0	3	0.832373	1.00722e-005
	579	4	54.5	15	2.75	0	0	0	1	0.945477	1.00722e-005
ITEM: TIMESTEP
	1630818
ITEM: NUMBER OF ATOMS
	194
ITEM: BOX BOUNDS
	0	97
	0	99
	0	101
ITEM: ATOMS id type x y z V SIA fia1 fia2 radius time
	6	1	81.5666	34.6631	41.7264	1	0	0	0	0.832373	2.0027e-005
	7	1	92.6063	21.0189	61.9663	1	0	0	0	0.832373	2.0027e-005
	9	1	54.4749	36.0552	63.2196	1	0	0	0	0.832373	2.0027e-005
	10	1	14.9868	45.371	86.0715	1	0	0	0	0.832373	2.0027e-005
	12	1	39.7132	54.7686	68.8081	1	0	0	0	0.832373	2.0027e-005
	13	1	68.3776	26.1227	46.2931	1	0	0	0	0.832373	2.0027e-005
	19	1	12.1553	52.0839	51.3917	1	0	0	0	0.832373	2.0027e-005
	20	1	46.4683	52.3945	60.4058	1	0	0	0	0.832373	2.0027e-005
	21	1	19.773	79.6418	79.7161	1	0	0	0	0.832373	2.0027e-005
	22	1	95.8636	42.4515	36.837	1	0	0	0	0.832373	2.0027e-005
	23	1	10.3523	6.88856	21.3109	1	0	0	0	0.832373	2.0027e-005
	24	1	76.0662	43.0677	88.1324	1	0	0	0	0.832373	2.0027e-005
	25	1	61.1947	62.4451	33.4175	1	0	0	0	0.832373	2.0027e-005
	26	1	29.2347	63.4608	46.5312	1	0	0	0	0.832373	2.0027e-005
	27	1	11.6057	51.7686	88.5039	1	0	0	0	0.832373	2.0027e-005
	28	1	76.3509	18.3034	71.7986	1	0	0	0	0.832373	2.0027e-005
	29	1	43.4054	94.8346	59.7279	1	0	0	0	0.832373	2.0027e-005
	30	1	47.2756	1.00689	56.4903	1	0	0	0	0.832373	2.0027e-005
	32	1	92.2314	67.6097	61.5293	1	0	0	0	0.832373	2.0027e-005
	33	1	94.6608	15.6651	71.8334	1	0	0	0	0.832373	2.0027e-005
	35	1	21.5053	66.9939	88.4281	1	0	0	0	0.832373	2.0027e-005
	36	1	47.8477	27.7829	81.4067	1	0	0	0	0.832373	2.0027e-005
	39	1	29.6621	32.1061	46.9418	1	0	0	0	0.832373	2.0027e-005
	40	1	25.1081	32.7981	62.6246	1	0	0	0	0.832373	2.0027e-005
	42	1	57.0745	36.7812	70.9756	1	0	0	0	0.832373	2.0027e-005
	44	1	35.9928	24.9587	48.3066	1	0	0	0	0.832373	2.0027e-005
	46	1	86.5346	22.6241	65.8567	1	0	0	0	0.832373	2.0027e-005
	47	1	31.3882	68.9665	7.59172	1	0	0	0	0.832373	2.0027e-005
	48	1	85.5902	92.9535	68.4968	1	0	0	0	0.832373	2.0027e-005
	49	1	15.1202	66.6493	56.4939	1	0	0	0	0.832373	2.0027e-005
	52	1	33.6069	8.3331	84.0421	1	0	0	0	0.832373	2.0027e-005
	55	1	32.1295	46.9862	100.899	1	0	0	0	0.832373	2.0027e-005
	57	1	94.7545	18.6714	94.8242	1	0	0	0	0.832373	2.0027e-005
	59	1	28.0016	2.98573	99.5844	1	0	0	0	0.832373	2.0027e-005
	60	1	85.8958	42.0264	92.256	1	0	0	0	0.832373	2.0027e-005
	61	1	83.4397	74.424	44.7162	1	0	0	0	0.832373	2.0027e-005
	62	1	77.9123	59.9613	70.2921	1	0	0	0	0.832373	2.0027e-005
	63	1	33.2172	38.3367	28.6551	1	0	0	0	0.832373	2.0027e-005
	64	1	76.5277	8.78518	93.3796	1	0	0	0	0.832373	2.0027e-005
	65	1	19.1069	2.15762	86.7219	1	0	0	0	0.832373	2.0027e-005
	66	1	57.9387	65.3864	34.6124	1	0	0	0	0.832373	2.0027e-005
	67	1	32.3769	98.1799	89.8623	1	0	0	0	0.832373	2.0027e-005
	70	1	42.1395	71.8157	82.0834	1	0	0	0	0.832373	2.0027e-005
	73	1	1.36238	72.5322	64.6683	1	0	0	0	0.832373	2.0027e-005
	76	1	81.5255	98.9238	99.6653	1	0	0	0	0.832373	2.0027e-005
	77	1	36.1849	98.4043	78.2838	1	0	0	0	0.832373	2.0027e-005
	78	1	4.692	46.1222	87.9496	1	0	0	0	0.832373	2.0027e-005
	80	1	12.1648	8.54388	28.5545	1	0	0	0	0.832373	2.0027e-005
	84	1	57.5868	88.2764	96.5324	1	0	0	0	0.832373	2.0027e-005
	85	1	9.43961	65.0768	97.4276	1	0	0	0	0.832373	2.0027e-005
	87	1	56.1638	53.1733	84.4203	1	0	0	0	0.832373	2.0027e-005
	89	1	31.0638	24.5391	94.5304	1	0	0	0	0.832373	2.0027e-005
	90	1	65.7177	30.6439	56.3845	1	0	0	0	0.832373	2.0027e-005
	91	1	86.6585	45.253	55.1836	1	0	0	0	0.832373	2.0027e-005
	93	1	86.5478	13.95	77.7502	1	0	0	0	0.832373	2.0027e-005
	94	1	22.26	76.1061	91.1691	1	0	0	0	0.832373	2.0027e-005
	96	1	12.3576	46.248	26.3485	1	0	0	0	0.832373	2.0027e-005
	98	1	32.7404	7.82982	76.6189	1	0	0	0	0.832373	2.0027e-005
	100	1	87.8542	74.6179	38.836	1	0	0	0	0.832373	2.0027e-005
	101	1	52.9082	4.63621	61.4036	1	0	0	0	0.832373	2.0027e-005
	102	1	41.0221	43.8545	35.8272	1	0	0	0	0.832373	2.0027e-005
	103	1	40.9268	33.2857	56.6312	1	0	0	0	0.832373	2.0027e-005
	104	1	94.2484	76.1997	31.1311	1	0	0	0	0.832373	2.0027e-005
	105	1	21.3227	22.5445	54.4544	1	0	0	0	0.832373	2.0027e-005
	107	1	48.9232	13.9027	25.47	1	0	0	0	0.832373	2.0027e-005
	110	1	83.3637	76.2037	63.4577	1	0	0	0	0.832373	2.0027e-005
	111	1	58.6151	69.6411	82.0405	1	0	0	0	0.832373	2.0027e-005
	112	1	45.8822	14.9686	64.4308	1	0	0	0	0.832373	2.0027e-005
	118	1	52.4938	32.3657	68.294	1	0	0	0	0.832373	2.0027e-005
	121	1	18.1105	19.3438	57.3689	1	0	0	0	0.832373	2.0027e-005
	122	1	47.3387	11.8814	45.1585	1	0	0	0	0.832373	2.0027e-005
	123	1	38.1147	84.4701	94.6706	1	0	0	0	0.832373	2.0027e-005
	126	1	36.8792	9.98665	90.1027	1	0	0	0	0.832373	2.0027e-005
	127	1	42.8156	95.9706	31.2582	1	0	0	0	0.832373	2.0027e-005
	128	1	83.6168	64.1951	74.4618	1	0	0	0	0.832373	2.0027e-005
	130	1	77.0162	76.7575	78.9632	1	0	0	0	0.832373	2.0027e-005
	132	1	20.5098	36.8873	51.4203	1	0	0	0	0.832373	2.0027e-005
	134	1	79.2381	47.1593	47.4763	1	0	0	0	0.832373	2.0027e-005
	136	1	70.3857	69.7771	46.3389	1	0	0	0	0.832373	2.0027e-005
	138	1	51.1837	2.97582	72.7479	1	0	0	0	0.832373	2.0027e-005
	139	1	87.3235	56.8872	67.1554	1	0	0	0	0.832373	2.0027e-005
	141	1	78.9971	68.2242	54.8482	1	0	0	0	0.832373	2.0027e-005
	142	1	70.6548	41.0721	62.7091	1	0	0	0	0.832373	2.0027e-005
	143	1	52.7148	32.1323	96.3144	1	0	0	0	0.832373	2.0027e-005
	144	1	56.8497	66.459	65.3109	1	0	0	0	0.832373	2.0027e-005
	147	1	88.4774	55.8716	56.436	1	0	0	0	0.832373	2.0027e-005
	148	1	37.4432	18.5427	95.0278	1	0	0	0	0.832373	2.0027e-005
	150	1	27.7955	12.7451	93.0968	1	0	0	0	0.832373	2.0027e-005
	151	1	75.6888	10.9277	47.888	1	0	0	0	0.832373	2.0027e-005
	152	1	83.4977	0.310876	78.2819	1	0	0	0	0.832373	2.0027e-005
	154	1	35.5937	67.9128	34.0401	1	0	0	0	0.832373	2.0027e-005
	155	1	60.501	57.0589	71.5008	1	0	0	0	0.832373	2.0027e-005
	158	1	95.4484	37.6262	47.2302	1	0	0	0	0.832373	2.0027e-005
	161	1	50.1064	72.2908	77.6533	1	0	0	0	0.832373	2.0027e-005
	162	1	3.55227	16.4769	78.2556	1	0	0	0	0.832373	2.0027e-005
	164	1	25.6985	28.4195	81.1706	1	0	0	0	0.832373	2.0027e-005
	165	1	82.425	21.9919	92.4751	1	0	0	0	0.832373	2.0027e-005
	166	1	21.4233	50.7448	70.3217	1	0	0	0	0.832373	2.0027e-005
	169	1	0.387812	1.08648	100.121	1	0	0	0	0.832373	2.0027e-005
	175	1	22.9624	5.69187	44.6824	1	0	0	0	0.832373	2.0027e-005
	176	1	26.507	7.43527	52.2487	1	0	0	0	0.832373	2.0027e-005
	177	1	0.8088	20.1132	42.7646	1	0	0	0	0.832373	2.0027e-005
	178	1	85.5949	73.5665	84.1062	1	0	0	0	0.832373	2.0027e-005
	180	1	9.38325	38.7681	42.3794	1	0	0	0	0.832373	2.0027e-005
	181	1	3.57976	85.0851	93.6199	1	0	0	0	0.832373	2.0027e-005
	183	1	94.5222	84.7599	45.014	1	0	0	0	0.832373	2.0027e-005
	185	1	71.2962	74.9703	80.5969	1	0	0	0	0.832373	2.0027e-005
	186	1	94.6434	6.36131	49.3978	1	0	0	0	0.832373	2.0027e-005
	188	1	4.60211	73.974	67.991	1	0	0	0	0.832373	2.0027e-005
	192	1	31.374	93.4453	47.9647	1	0	0	0	0.832373	2.0027e-005
	204	7	17.3807	2.10663	40.7198	1	0	0	1	0.832373	2.0027e-005
	222	7	59.748	37.8978	28.9301	1	0	0	1	0.832373	2.0027e-005
	226	7	47.6921	78.7827	56.1426	1	0	0	1	0.832373	2.0027e-005
	230	7	16.0411	33.2785	26.2392	1	0	0	1	0.832373	2.0027e-005
	285	7	81.2021	59.1072	8.86401	1	0	0	1	0.832373	2.0027e-005
	304	7	20.7754	56.7912	38.3448	1	0	0	1	0.832373	2.0027e-005
	308	7	41.821	11.4525	15.5509	1	0	0	2	0.832373	2.0027e-005
	318	7	6.71623	14.3293	29.2004	1	0	0	1	0.832373	2.0027e-005
	347	7	62.604	16.1766	36.9757	1	0	0	2	0.832373	2.0027e-005
	411	7	11.6575	2.05829	13.0425	1	0	0	1	0.832373	2.0027e-005
	413	7	18.2006	0.780005	17.8284	1	0	0	1	0.832373	2.0027e-005
	419	7	64.5586	54.853	36.47	1	0	0	1	0.832373	2.0027e-005
	437	7	30.039	89.5291	43.4903	1	0	0	2	0.832373	2.0027e-005
	452	7	44.951	57.9642	2.05154	1	0	0	2	0.832373	2.0027e-005
	507	7	61.8811	94.7461	23.0344	1	0	0	1	0.832373	2.0027e-005
	525	7	85.5528	34.0021	25.7807	1	0	0	2	0.832373	2.0027e-005
	538	7	38.655	75.3857	38.5276	1	0	0	1	0.832373	2.0027e-005
	539	7	64.1042	91.6533	31.6752	1	0	0	1	0.832373	2.0027e-005
	544	7	66.5164	2.06395	28.2618	1	0	0	1	0.832373	2.0027e-005
	558	7	59.5326	28.6052	13.8384	1	0	0	2	0.832373	2.0027e-005
	559	7	0.966521	60.2604	42.0893	1	0	0	1	0.832373	2.0027e-005
	566	7	28.6142	18.6523	27.1968	1	0	0	2	0.832373	2.0027e-005
	591	7	27.9074	29.981	34.1361	1	0	0	1	0.832373	2.0027e-005
	596	7	72.3222	85.2281	27.1663	1	0	0	2	0.832373	2.0027e-005
	598	7	63.0708	50.6093	49.3201	1	0	0	1	0.832373	2.0027e-005
	617	7	40.6556	80.8328	17.4533	1	0	0	2	0.832373	2.0027e-005
	621	7	78.9478	89.7564	35.701	1	0	0	4	0.832373	2.0027e-005
	631	7	48.2081	72.9657	26.2316	1	0	0	2	0.832373	2.0027e-005
	639	7	64.3172	30.1629	27.7141	1	0	0	4	0.832373	2.0027e-005
	643	7	2.06055	92.7045	55.2432	1	0	0	1	0.832373	2.0027e-005
	646	7	61.6962	17.4111	11.0024	1	0	0	2	0.832373	2.0027e-005