ITEM: TIMESTEP
	0
ITEM: NUMBER OF ATOMS
	0
ITEM: BOX BOUNDS
	0	98
	0	102
	0	315
ITEM: ATOMS id type x y z V SIA fia1 fia2 radius time
ITEM: TIMESTEP
	20
ITEM: NUMBER OF ATOMS
	1
ITEM: BOX BOUNDS
	0	98
	0	102
	0	315
ITEM: ATOMS id type x y z V SIA fia1 fia2 radius time
	1	4	40	91.25	7.5	0	0	0	1	0.945477	1.06931e-008
ITEM: TIMESTEP
	40
ITEM: NUMBER OF ATOMS
	1
ITEM: BOX BOUNDS
	0	98
	0	102
	0	315
ITEM: ATOMS id type x y z V SIA fia1 fia2 radius time
	1	4	39.75	91.5	8	0	0	0	1	0.945477	1.07001e-008
ITEM: TIMESTEP
	60
ITEM: NUMBER OF ATOMS
	1
ITEM: BOX BOUNDS
	0	98
	0	102
	0	315
ITEM: ATOMS id type x y z V SIA fia1 fia2 radius time
	1	4	38.5	90	7.75	0	0	0	1	0.945477	1.0706e-008
ITEM: TIMESTEP
	80
ITEM: NUMBER OF ATOMS
	1
ITEM: BOX BOUNDS
	0	98
	0	102
	0	315
ITEM: ATOMS id type x y z V SIA fia1 fia2 radius time
	1	4	39	90.25	8.5	0	0	0	1	0.945477	1.07126e-008
ITEM: TIMESTEP
	100
ITEM: NUMBER OF ATOMS
	1
ITEM: BOX BOUNDS
	0	98
	0	102
	0	315
ITEM: ATOMS id type x y z V SIA fia1 fia2 radius time
	1	4	38.25	89.5	9	0	0	0	1	0.945477	1.07212e-008
ITEM: TIMESTEP
	120
ITEM: NUMBER OF ATOMS
	1
ITEM: BOX BOUNDS
	0	98
	0	102
	0	315
ITEM: ATOMS id type x y z V SIA fia1 fia2 radius time
	1	4	38	89.75	6.5	0	0	0	1	0.945477	1.07313e-008
ITEM: TIMESTEP
	140
ITEM: NUMBER OF ATOMS
	1
ITEM: BOX BOUNDS
	0	98
	0	102
	0	315
ITEM: ATOMS id type x y z V SIA fia1 fia2 radius time
	1	4	38	88.75	5.5	0	0	0	1	0.945477	1.07375e-008
ITEM: TIMESTEP
	160
ITEM: NUMBER OF ATOMS
	1
ITEM: BOX BOUNDS
	0	98
	0	102
	0	315
ITEM: ATOMS id type x y z V SIA fia1 fia2 radius time
	1	4	37.5	89	5.75	0	0	0	1	0.945477	1.07441e-008
ITEM: TIMESTEP
	180
ITEM: NUMBER OF ATOMS
	1
ITEM: BOX BOUNDS
	0	98
	0	102
	0	315
ITEM: ATOMS id type x y z V SIA fia1 fia2 radius time
	1	4	38	89.75	6.5	0	0	0	1	0.945477	1.07491e-008
ITEM: TIMESTEP
	200
ITEM: NUMBER OF ATOMS
	1
ITEM: BOX BOUNDS
	0	98
	0	102
	0	315
ITEM: ATOMS id type x y z V SIA fia1 fia2 radius time
	1	4	39.5	91	7.75	0	0	0	1	0.945477	1.07568e-008
ITEM: TIMESTEP
	220
ITEM: NUMBER OF ATOMS
	1
ITEM: BOX BOUNDS
	0	98
	0	102
	0	315
ITEM: ATOMS id type x y z V SIA fia1 fia2 radius time
	1	4	40	90.75	9.5	0	0	0	1	0.945477	1.07645e-008
ITEM: TIMESTEP
	240
ITEM: NUMBER OF ATOMS
	1
ITEM: BOX BOUNDS
	0	98
	0	102
	0	315
ITEM: ATOMS id type x y z V SIA fia1 fia2 radius time
	1	4	39	90.75	8.5	0	0	0	1	0.945477	1.07705e-008
ITEM: TIMESTEP
	260
ITEM: NUMBER OF ATOMS
	1
ITEM: BOX BOUNDS
	0	98
	0	102
	0	315
ITEM: ATOMS id type x y z V SIA fia1 fia2 radius time
	1	4	39	89.25	6.5	0	0	0	1	0.945477	1.07768e-008
ITEM: TIMESTEP
	280
ITEM: NUMBER OF ATOMS
	1
ITEM: BOX BOUNDS
	0	98
	0	102
	0	315
ITEM: ATOMS id type x y z V SIA fia1 fia2 radius time
	1	4	38.25	88.5	7	0	0	0	1	0.945477	1.07865e-008
ITEM: TIMESTEP
	300
ITEM: NUMBER OF ATOMS
	1
ITEM: BOX BOUNDS
	0	98
	0	102
	0	315
ITEM: ATOMS id type x y z V SIA fia1 fia2 radius time
	1	4	37.25	88.5	7	0	0	0	1	0.945477	1.07913e-008
ITEM: TIMESTEP
	320
ITEM: NUMBER OF ATOMS
	1
ITEM: BOX BOUNDS
	0	98
	0	102
	0	315
ITEM: ATOMS id type x y z V SIA fia1 fia2 radius time
	1	4	36.5	88	7.25	0	0	0	1	0.945477	1.07999e-008
ITEM: TIMESTEP
	340
ITEM: NUMBER OF ATOMS
	1
ITEM: BOX BOUNDS
	0	98
	0	102
	0	315
ITEM: ATOMS id type x y z V SIA fia1 fia2 radius time
	1	4	36	88.75	6.5	0	0	0	1	0.945477	1.08069e-008
ITEM: TIMESTEP
	360
ITEM: NUMBER OF ATOMS
	1
ITEM: BOX BOUNDS
	0	98
	0	102
	0	315
ITEM: ATOMS id type x y z V SIA fia1 fia2 radius time
	1	4	35.75	89.5	6	0	0	0	1	0.945477	1.08133e-008
ITEM: TIMESTEP
	380
ITEM: NUMBER OF ATOMS
	1
ITEM: BOX BOUNDS
	0	98
	0	102
	0	315
ITEM: ATOMS id type x y z V SIA fia1 fia2 radius time
	1	4	36	90.75	6.5	0	0	0	1	0.945477	1.08207e-008
ITEM: TIMESTEP
	400
ITEM: NUMBER OF ATOMS
	1
ITEM: BOX BOUNDS
	0	98
	0	102
	0	315
ITEM: ATOMS id type x y z V SIA fia1 fia2 radius time
	1	4	33.75	90.5	8	0	0	0	1	0.945477	1.0827e-008
ITEM: TIMESTEP
	420
ITEM: NUMBER OF ATOMS
	1
ITEM: BOX BOUNDS
	0	98
	0	102
	0	315
ITEM: ATOMS id type x y z V SIA fia1 fia2 radius time
	1	4	33.5	90	7.25	0	0	0	1	0.945477	1.08308e-008
ITEM: TIMESTEP
	440
ITEM: NUMBER OF ATOMS
	1
ITEM: BOX BOUNDS
	0	98
	0	102
	0	315
ITEM: ATOMS id type x y z V SIA fia1 fia2 radius time
	1	4	33	89.25	6.5	0	0	0	1	0.945477	1.08369e-008
ITEM: TIMESTEP
	460
ITEM: NUMBER OF ATOMS
	1
ITEM: BOX BOUNDS
	0	98
	0	102
	0	315
ITEM: ATOMS id type x y z V SIA fia1 fia2 radius time
	1	4	33	89.75	6.5	0	0	0	1	0.945477	1.0843e-008
ITEM: TIMESTEP
	480
ITEM: NUMBER OF ATOMS
	1
ITEM: BOX BOUNDS
	0	98
	0	102
	0	315
ITEM: ATOMS id type x y z V SIA fia1 fia2 radius time
	1	4	33	89.25	6.5	0	0	0	1	0.945477	1.08497e-008
ITEM: TIMESTEP
	500
ITEM: NUMBER OF ATOMS
	1
ITEM: BOX BOUNDS
	0	98
	0	102
	0	315
ITEM: ATOMS id type x y z V SIA fia1 fia2 radius time
	1	4	30.5	89	6.25	0	0	0	1	0.945477	1.08557e-008
ITEM: TIMESTEP
	520
ITEM: NUMBER OF ATOMS
	1
ITEM: BOX BOUNDS
	0	98
	0	102
	0	315
ITEM: ATOMS id type x y z V SIA fia1 fia2 radius time
	1	4	27.5	89	4.75	0	0	0	1	0.945477	1.08637e-008
ITEM: TIMESTEP
	540
ITEM: NUMBER OF ATOMS
	1
ITEM: BOX BOUNDS
	0	98
	0	102
	0	315
ITEM: ATOMS id type x y z V SIA fia1 fia2 radius time
	1	4	27	89.25	5.5	0	0	0	1	0.945477	1.08715e-008
ITEM: TIMESTEP
	560
ITEM: NUMBER OF ATOMS
	1
ITEM: BOX BOUNDS
	0	98
	0	102
	0	315
ITEM: ATOMS id type x y z V SIA fia1 fia2 radius time
	1	4	25.75	88.5	7	0	0	0	1	0.945477	1.08794e-008
ITEM: TIMESTEP
	580
ITEM: NUMBER OF ATOMS
	1
ITEM: BOX BOUNDS
	0	98
	0	102
	0	315
ITEM: ATOMS id type x y z V SIA fia1 fia2 radius time
	1	4	27.25	87.5	7	0	0	0	1	0.945477	1.0887e-008
ITEM: TIMESTEP
	600
ITEM: NUMBER OF ATOMS
	1
ITEM: BOX BOUNDS
	0	98
	0	102
	0	315
ITEM: ATOMS id type x y z V SIA fia1 fia2 radius time
	1	4	26.75	86.5	6	0	0	0	1	0.945477	1.0892e-008
ITEM: TIMESTEP
	620
ITEM: NUMBER OF ATOMS
	1
ITEM: BOX BOUNDS
	0	98
	0	102
	0	315
ITEM: ATOMS id type x y z V SIA fia1 fia2 radius time
	1	4	27.5	86	5.75	0	0	0	1	0.945477	1.08979e-008
ITEM: TIMESTEP
	640
ITEM: NUMBER OF ATOMS
	1
ITEM: BOX BOUNDS
	0	98
	0	102
	0	315
ITEM: ATOMS id type x y z V SIA fia1 fia2 radius time
	1	4	28.5	85	5.25	0	0	0	1	0.945477	1.09053e-008
ITEM: TIMESTEP
	660
ITEM: NUMBER OF ATOMS
	1
ITEM: BOX BOUNDS
	0	98
	0	102
	0	315
ITEM: ATOMS id type x y z V SIA fia1 fia2 radius time
	1	4	29.5	85	6.25	0	0	0	1	0.945477	1.09132e-008
ITEM: TIMESTEP
	680
ITEM: NUMBER OF ATOMS
	1
ITEM: BOX BOUNDS
	0	98
	0	102
	0	315
ITEM: ATOMS id type x y z V SIA fia1 fia2 radius time
	1	4	28.5	84	6.25	0	0	0	1	0.945477	1.09207e-008
ITEM: TIMESTEP
	700
ITEM: NUMBER OF ATOMS
	1
ITEM: BOX BOUNDS
	0	98
	0	102
	0	315
ITEM: ATOMS id type x y z V SIA fia1 fia2 radius time
	1	4	28.75	84.5	7	0	0	0	1	0.945477	1.0927e-008
ITEM: TIMESTEP
	720
ITEM: NUMBER OF ATOMS
	1
ITEM: BOX BOUNDS
	0	98
	0	102
	0	315
ITEM: ATOMS id type x y z V SIA fia1 fia2 radius time
	1	4	30	85.75	6.5	0	0	0	1	0.945477	1.09344e-008
ITEM: TIMESTEP
	740
ITEM: NUMBER OF ATOMS
	1
ITEM: BOX BOUNDS
	0	98
	0	102
	0	315
ITEM: ATOMS id type x y z V SIA fia1 fia2 radius time
	1	4	29	83.25	6.5	0	0	0	1	0.945477	1.09405e-008
ITEM: TIMESTEP
	760
ITEM: NUMBER OF ATOMS
	1
ITEM: BOX BOUNDS
	0	98
	0	102
	0	315
ITEM: ATOMS id type x y z V SIA fia1 fia2 radius time
	1	4	28	83.25	6.5	0	0	0	1	0.945477	1.09469e-008
ITEM: TIMESTEP
	780
ITEM: NUMBER OF ATOMS
	1
ITEM: BOX BOUNDS
	0	98
	0	102
	0	315
ITEM: ATOMS id type x y z V SIA fia1 fia2 radius time
	1	4	28.75	83.5	6	0	0	0	1	0.945477	1.09528e-008
ITEM: TIMESTEP
	800
ITEM: NUMBER OF ATOMS
	1
ITEM: BOX BOUNDS
	0	98
	0	102
	0	315
ITEM: ATOMS id type x y z V SIA fia1 fia2 radius time
	1	4	28.75	84.5	7	0	0	0	1	0.945477	1.09608e-008
ITEM: TIMESTEP
	820
ITEM: NUMBER OF ATOMS
	1
ITEM: BOX BOUNDS
	0	98
	0	102
	0	315
ITEM: ATOMS id type x y z V SIA fia1 fia2 radius time
	1	4	29	84.75	9.5	0	0	0	1	0.945477	1.09686e-008
ITEM: TIMESTEP
	840
ITEM: NUMBER OF ATOMS
	1
ITEM: BOX BOUNDS
	0	98
	0	102
	0	315
ITEM: ATOMS id type x y z V SIA fia1 fia2 radius time
	1	4	27.75	84.5	9	0	0	0	1	0.945477	1.09759e-008
ITEM: TIMESTEP
	860
ITEM: NUMBER OF ATOMS
	1
ITEM: BOX BOUNDS
	0	98
	0	102
	0	315
ITEM: ATOMS id type x y z V SIA fia1 fia2 radius time
	1	4	26.5	85	9.25	0	0	0	1	0.945477	1.09831e-008
ITEM: TIMESTEP
	880
ITEM: NUMBER OF ATOMS
	1
ITEM: BOX BOUNDS
	0	98
	0	102
	0	315
ITEM: ATOMS id type x y z V SIA fia1 fia2 radius time
	1	4	25.5	85	7.75	0	0	0	1	0.945477	1.09933e-008
ITEM: TIMESTEP
	900
ITEM: NUMBER OF ATOMS
	1
ITEM: BOX BOUNDS
	0	98
	0	102
	0	315
ITEM: ATOMS id type x y z V SIA fia1 fia2 radius time
	1	4	26.25	84.5	7	0	0	0	1	0.945477	1.09981e-008
ITEM: TIMESTEP
	920
ITEM: NUMBER OF ATOMS
	1
ITEM: BOX BOUNDS
	0	98
	0	102
	0	315
ITEM: ATOMS id type x y z V SIA fia1 fia2 radius time
	1	4	26	83.75	5.5	0	0	0	1	0.945477	1.1004e-008
ITEM: TIMESTEP
	940
ITEM: NUMBER OF ATOMS
	1
ITEM: BOX BOUNDS
	0	98
	0	102
	0	315
ITEM: ATOMS id type x y z V SIA fia1 fia2 radius time
	1	4	26.75	84.5	6	0	0	0	1	0.945477	1.10097e-008
ITEM: TIMESTEP
	960
ITEM: NUMBER OF ATOMS
	1
ITEM: BOX BOUNDS
	0	98
	0	102
	0	315
ITEM: ATOMS id type x y z V SIA fia1 fia2 radius time
	1	4	26	82.75	6.5	0	0	0	1	0.945477	1.1017e-008
ITEM: TIMESTEP
	980
ITEM: NUMBER OF ATOMS
	1
ITEM: BOX BOUNDS
	0	98
	0	102
	0	315
ITEM: ATOMS id type x y z V SIA fia1 fia2 radius time
	1	4	26.25	81.5	7	0	0	0	1	0.945477	1.1025e-008
ITEM: TIMESTEP
	1000
ITEM: NUMBER OF ATOMS
	1
ITEM: BOX BOUNDS
	0	98
	0	102
	0	315
ITEM: ATOMS id type x y z V SIA fia1 fia2 radius time
	1	4	25.5	83	7.75	0	0	0	1	0.945477	1.10325e-008
ITEM: TIMESTEP
	1020
ITEM: NUMBER OF ATOMS
	1
ITEM: BOX BOUNDS
	0	98
	0	102
	0	315
ITEM: ATOMS id type x y z V SIA fia1 fia2 radius time
	1	4	25	82.75	8.5	0	0	0	1	0.945477	1.10394e-008
ITEM: TIMESTEP
	1040
ITEM: NUMBER OF ATOMS
	1
ITEM: BOX BOUNDS
	0	98
	0	102
	0	315
ITEM: ATOMS id type x y z V SIA fia1 fia2 radius time
	1	4	26.25	80.5	9	0	0	0	1	0.945477	1.10448e-008
ITEM: TIMESTEP
	1060
ITEM: NUMBER OF ATOMS
	1
ITEM: BOX BOUNDS
	0	98
	0	102
	0	315
ITEM: ATOMS id type x y z V SIA fia1 fia2 radius time
	1	4	26.5	80	10.25	0	0	0	1	0.945477	1.10535e-008
ITEM: TIMESTEP
	1080
ITEM: NUMBER OF ATOMS
	1
ITEM: BOX BOUNDS
	0	98
	0	102
	0	315
ITEM: ATOMS id type x y z V SIA fia1 fia2 radius time
	1	4	26	80.75	9.5	0	0	0	1	0.945477	1.10593e-008
ITEM: TIMESTEP
	1100
ITEM: NUMBER OF ATOMS
	1
ITEM: BOX BOUNDS
	0	98
	0	102
	0	315
ITEM: ATOMS id type x y z V SIA fia1 fia2 radius time
	1	4	26	81.75	7.5	0	0	0	1	0.945477	1.10694e-008
ITEM: TIMESTEP
	1120
ITEM: NUMBER OF ATOMS
	1
ITEM: BOX BOUNDS
	0	98
	0	102
	0	315
ITEM: ATOMS id type x y z V SIA fia1 fia2 radius time
	1	4	28	82.25	7.5	0	0	0	1	0.945477	1.10747e-008
ITEM: TIMESTEP
	1140
ITEM: NUMBER OF ATOMS
	1
ITEM: BOX BOUNDS
	0	98
	0	102
	0	315
ITEM: ATOMS id type x y z V SIA fia1 fia2 radius time
	1	4	27.5	82	8.25	0	0	0	1	0.945477	1.10838e-008
ITEM: TIMESTEP
	1160
ITEM: NUMBER OF ATOMS
	1
ITEM: BOX BOUNDS
	0	98
	0	102
	0	315
ITEM: ATOMS id type x y z V SIA fia1 fia2 radius time
	1	4	28	82.75	8.5	0	0	0	1	0.945477	1.10925e-008
ITEM: TIMESTEP
	1180
ITEM: NUMBER OF ATOMS
	1
ITEM: BOX BOUNDS
	0	98
	0	102
	0	315
ITEM: ATOMS id type x y z V SIA fia1 fia2 radius time
	1	4	27.25	83.5	8	0	0	0	1	0.945477	1.10994e-008
ITEM: TIMESTEP
	1200
ITEM: NUMBER OF ATOMS
	1
ITEM: BOX BOUNDS
	0	98
	0	102
	0	315
ITEM: ATOMS id type x y z V SIA fia1 fia2 radius time
	1	4	27.5	82	8.25	0	0	0	1	0.945477	1.11086e-008
ITEM: TIMESTEP
	1220
ITEM: NUMBER OF ATOMS
	1
ITEM: BOX BOUNDS
	0	98
	0	102
	0	315
ITEM: ATOMS id type x y z V SIA fia1 fia2 radius time
	1	4	27	83.75	9.5	0	0	0	1	0.945477	1.11165e-008
ITEM: TIMESTEP
	1240
ITEM: NUMBER OF ATOMS
	1
ITEM: BOX BOUNDS
	0	98
	0	102
	0	315
ITEM: ATOMS id type x y z V SIA fia1 fia2 radius time
	1	4	27.25	84.5	10	0	0	0	1	0.945477	1.11264e-008
ITEM: TIMESTEP
	1260
ITEM: NUMBER OF ATOMS
	1
ITEM: BOX BOUNDS
	0	98
	0	102
	0	315
ITEM: ATOMS id type x y z V SIA fia1 fia2 radius time
	1	4	28	83.75	10.5	0	0	0	1	0.945477	1.1131e-008
ITEM: TIMESTEP
	1280
ITEM: NUMBER OF ATOMS
	1
ITEM: BOX BOUNDS
	0	98
	0	102
	0	315
ITEM: ATOMS id type x y z V SIA fia1 fia2 radius time
	1	4	26.25	83.5	12	0	0	0	1	0.945477	1.11375e-008
ITEM: TIMESTEP
	1300
ITEM: NUMBER OF ATOMS
	1
ITEM: BOX BOUNDS
	0	98
	0	102
	0	315
ITEM: ATOMS id type x y z V SIA fia1 fia2 radius time
	1	4	27.75	83.5	13	0	0	0	1	0.945477	1.11469e-008
ITEM: TIMESTEP
	1320
ITEM: NUMBER OF ATOMS
	1
ITEM: BOX BOUNDS
	0	98
	0	102
	0	315
ITEM: ATOMS id type x y z V SIA fia1 fia2 radius time
	1	4	27	83.75	12.5	0	0	0	1	0.945477	1.11516e-008
ITEM: TIMESTEP
	1340
ITEM: NUMBER OF ATOMS
	1
ITEM: BOX BOUNDS
	0	98
	0	102
	0	315
ITEM: ATOMS id type x y z V SIA fia1 fia2 radius time
	1	4	26.5	85	13.75	0	0	0	1	0.945477	1.11572e-008
ITEM: TIMESTEP
	1360
ITEM: NUMBER OF ATOMS
	1
ITEM: BOX BOUNDS
	0	98
	0	102
	0	315
ITEM: ATOMS id type x y z V SIA fia1 fia2 radius time
	1	4	27	84.75	14.5	0	0	0	1	0.945477	1.11636e-008
ITEM: TIMESTEP
	1380
ITEM: NUMBER OF ATOMS
	1
ITEM: BOX BOUNDS
	0	98
	0	102
	0	315
ITEM: ATOMS id type x y z V SIA fia1 fia2 radius time
	1	4	26.5	85	13.25	0	0	0	1	0.945477	1.11712e-008
ITEM: TIMESTEP
	1400
ITEM: NUMBER OF ATOMS
	1
ITEM: BOX BOUNDS
	0	98
	0	102
	0	315
ITEM: ATOMS id type x y z V SIA fia1 fia2 radius time
	1	4	26	84.25	13.5	0	0	0	1	0.945477	1.11785e-008
ITEM: TIMESTEP
	1420
ITEM: NUMBER OF ATOMS
	1
ITEM: BOX BOUNDS
	0	98
	0	102
	0	315
ITEM: ATOMS id type x y z V SIA fia1 fia2 radius time
	1	4	27.5	85	13.75	0	0	0	1	0.945477	1.1186e-008
ITEM: TIMESTEP
	1440
ITEM: NUMBER OF ATOMS
	1
ITEM: BOX BOUNDS
	0	98
	0	102
	0	315
ITEM: ATOMS id type x y z V SIA fia1 fia2 radius time
	1	4	25.5	85	13.75	0	0	0	1	0.945477	1.11922e-008
ITEM: TIMESTEP
	1460
ITEM: NUMBER OF ATOMS
	1
ITEM: BOX BOUNDS
	0	98
	0	102
	0	315
ITEM: ATOMS id type x y z V SIA fia1 fia2 radius time
	1	4	25.5	86	14.25	0	0	0	1	0.945477	1.11999e-008
ITEM: TIMESTEP
	1480
ITEM: NUMBER OF ATOMS
	1
ITEM: BOX BOUNDS
	0	98
	0	102
	0	315
ITEM: ATOMS id type x y z V SIA fia1 fia2 radius time
	1	4	25.5	85	14.25	0	0	0	1	0.945477	1.12059e-008
ITEM: TIMESTEP
	1500
ITEM: NUMBER OF ATOMS
	1
ITEM: BOX BOUNDS
	0	98
	0	102
	0	315
ITEM: ATOMS id type x y z V SIA fia1 fia2 radius time
	1	4	25	84.75	14.5	0	0	0	1	0.945477	1.12125e-008
ITEM: TIMESTEP
	1520
ITEM: NUMBER OF ATOMS
	1
ITEM: BOX BOUNDS
	0	98
	0	102
	0	315
ITEM: ATOMS id type x y z V SIA fia1 fia2 radius time
	1	4	24.5	84	13.75	0	0	0	1	0.945477	1.12201e-008
ITEM: TIMESTEP
	1540
ITEM: NUMBER OF ATOMS
	1
ITEM: BOX BOUNDS
	0	98
	0	102
	0	315
ITEM: ATOMS id type x y z V SIA fia1 fia2 radius time
	1	4	26	84.25	12.5	0	0	0	1	0.945477	1.12276e-008
ITEM: TIMESTEP
	1560
ITEM: NUMBER OF ATOMS
	1
ITEM: BOX BOUNDS
	0	98
	0	102
	0	315
ITEM: ATOMS id type x y z V SIA fia1 fia2 radius time
	1	4	25.75	83.5	13	0	0	0	1	0.945477	1.12361e-008
ITEM: TIMESTEP
	1580
ITEM: NUMBER OF ATOMS
	1
ITEM: BOX BOUNDS
	0	98
	0	102
	0	315
ITEM: ATOMS id type x y z V SIA fia1 fia2 radius time
	1	4	25.75	83.5	14	0	0	0	1	0.945477	1.12433e-008
ITEM: TIMESTEP
	1600
ITEM: NUMBER OF ATOMS
	1
ITEM: BOX BOUNDS
	0	98
	0	102
	0	315
ITEM: ATOMS id type x y z V SIA fia1 fia2 radius time
	1	4	24.75	83.5	15	0	0	0	1	0.945477	1.1251e-008
ITEM: TIMESTEP
	1620
ITEM: NUMBER OF ATOMS
	1
ITEM: BOX BOUNDS
	0	98
	0	102
	0	315
ITEM: ATOMS id type x y z V SIA fia1 fia2 radius time
	1	4	26.5	83	16.25	0	0	0	1	0.945477	1.12594e-008
ITEM: TIMESTEP
	1640
ITEM: NUMBER OF ATOMS
	1
ITEM: BOX BOUNDS
	0	98
	0	102
	0	315
ITEM: ATOMS id type x y z V SIA fia1 fia2 radius time
	1	4	27.25	82.5	17	0	0	0	1	0.945477	1.12654e-008
ITEM: TIMESTEP
	1660
ITEM: NUMBER OF ATOMS
	1
ITEM: BOX BOUNDS
	0	98
	0	102
	0	315
ITEM: ATOMS id type x y z V SIA fia1 fia2 radius time
	1	4	27	81.75	18.5	0	0	0	1	0.945477	1.12733e-008
ITEM: TIMESTEP
	1680
ITEM: NUMBER OF ATOMS
	1
ITEM: BOX BOUNDS
	0	98
	0	102
	0	315
ITEM: ATOMS id type x y z V SIA fia1 fia2 radius time
	1	4	26.5	82	17.75	0	0	0	1	0.945477	1.12811e-008
ITEM: TIMESTEP
	1700
ITEM: NUMBER OF ATOMS
	1
ITEM: BOX BOUNDS
	0	98
	0	102
	0	315
ITEM: ATOMS id type x y z V SIA fia1 fia2 radius time
	1	4	26.75	82.5	18	0	0	0	1	0.945477	1.12871e-008
ITEM: TIMESTEP
	1720
ITEM: NUMBER OF ATOMS
	1
ITEM: BOX BOUNDS
	0	98
	0	102
	0	315
ITEM: ATOMS id type x y z V SIA fia1 fia2 radius time
	1	4	26.5	82	18.75	0	0	0	1	0.945477	1.12928e-008
ITEM: TIMESTEP
	1740
ITEM: NUMBER OF ATOMS
	1
ITEM: BOX BOUNDS
	0	98
	0	102
	0	315
ITEM: ATOMS id type x y z V SIA fia1 fia2 radius time
	1	4	25.75	81.5	18	0	0	0	1	0.945477	1.13013e-008
ITEM: TIMESTEP
	1760
ITEM: NUMBER OF ATOMS
	1
ITEM: BOX BOUNDS
	0	98
	0	102
	0	315
ITEM: ATOMS id type x y z V SIA fia1 fia2 radius time
	1	4	25	80.25	17.5	0	0	0	1	0.945477	1.131e-008
ITEM: TIMESTEP
	1780
ITEM: NUMBER OF ATOMS
	1
ITEM: BOX BOUNDS
	0	98
	0	102
	0	315
ITEM: ATOMS id type x y z V SIA fia1 fia2 radius time
	1	4	25.5	81	18.75	0	0	0	1	0.945477	1.13177e-008
ITEM: TIMESTEP
	1800
ITEM: NUMBER OF ATOMS
	1
ITEM: BOX BOUNDS
	0	98
	0	102
	0	315
ITEM: ATOMS id type x y z V SIA fia1 fia2 radius time
	1	4	25.5	81	16.75	0	0	0	1	0.945477	1.13244e-008
ITEM: TIMESTEP
	1820
ITEM: NUMBER OF ATOMS
	1
ITEM: BOX BOUNDS
	0	98
	0	102
	0	315
ITEM: ATOMS id type x y z V SIA fia1 fia2 radius time
	1	4	26	80.75	16.5	0	0	0	1	0.945477	1.13323e-008
ITEM: TIMESTEP
	1840
ITEM: NUMBER OF ATOMS
	1
ITEM: BOX BOUNDS
	0	98
	0	102
	0	315
ITEM: ATOMS id type x y z V SIA fia1 fia2 radius time
	1	4	26.5	80	17.75	0	0	0	1	0.945477	1.13396e-008
ITEM: TIMESTEP
	1860
ITEM: NUMBER OF ATOMS
	1
ITEM: BOX BOUNDS
	0	98
	0	102
	0	315
ITEM: ATOMS id type x y z V SIA fia1 fia2 radius time
	1	4	26.5	80	18.25	0	0	0	1	0.945477	1.13475e-008
ITEM: TIMESTEP
	1880
ITEM: NUMBER OF ATOMS
	1
ITEM: BOX BOUNDS
	0	98
	0	102
	0	315
ITEM: ATOMS id type x y z V SIA fia1 fia2 radius time
	1	4	25.5	79	16.25	0	0	0	1	0.945477	1.13527e-008
ITEM: TIMESTEP
	1900
ITEM: NUMBER OF ATOMS
	1
ITEM: BOX BOUNDS
	0	98
	0	102
	0	315
ITEM: ATOMS id type x y z V SIA fia1 fia2 radius time
	1	4	24.5	79	14.75	0	0	0	1	0.945477	1.13626e-008
ITEM: TIMESTEP
	1920
ITEM: NUMBER OF ATOMS
	1
ITEM: BOX BOUNDS
	0	98
	0	102
	0	315
ITEM: ATOMS id type x y z V SIA fia1 fia2 radius time
	1	4	24.5	78	13.75	0	0	0	1	0.945477	1.13668e-008
ITEM: TIMESTEP
	1940
ITEM: NUMBER OF ATOMS
	1
ITEM: BOX BOUNDS
	0	98
	0	102
	0	315
ITEM: ATOMS id type x y z V SIA fia1 fia2 radius time
	1	4	24.5	79	13.75	0	0	0	1	0.945477	1.13759e-008
ITEM: TIMESTEP
	1960
ITEM: NUMBER OF ATOMS
	1
ITEM: BOX BOUNDS
	0	98
	0	102
	0	315
ITEM: ATOMS id type x y z V SIA fia1 fia2 radius time
	1	4	24.5	79	12.75	0	0	0	1	0.945477	1.13803e-008
ITEM: TIMESTEP
	1980
ITEM: NUMBER OF ATOMS
	1
ITEM: BOX BOUNDS
	0	98
	0	102
	0	315
ITEM: ATOMS id type x y z V SIA fia1 fia2 radius time
	1	4	23.5	78	13.75	0	0	0	1	0.945477	1.13875e-008
ITEM: TIMESTEP
	2000
ITEM: NUMBER OF ATOMS
	1
ITEM: BOX BOUNDS
	0	98
	0	102
	0	315
ITEM: ATOMS id type x y z V SIA fia1 fia2 radius time
	1	4	23	77.25	14.5	0	0	0	1	0.945477	1.13949e-008
ITEM: TIMESTEP
	2020
ITEM: NUMBER OF ATOMS
	1
ITEM: BOX BOUNDS
	0	98
	0	102
	0	315
ITEM: ATOMS id type x y z V SIA fia1 fia2 radius time
	1	4	23.25	77.5	14	0	0	0	1	0.945477	1.14031e-008
ITEM: TIMESTEP
	2040
ITEM: NUMBER OF ATOMS
	1
ITEM: BOX BOUNDS
	0	98
	0	102
	0	315
ITEM: ATOMS id type x y z V SIA fia1 fia2 radius time
	1	4	22.75	78.5	12	0	0	0	1	0.945477	1.14077e-008
ITEM: TIMESTEP
	2060
ITEM: NUMBER OF ATOMS
	1
ITEM: BOX BOUNDS
	0	98
	0	102
	0	315
ITEM: ATOMS id type x y z V SIA fia1 fia2 radius time
	1	4	22.5	77	12.25	0	0	0	1	0.945477	1.14164e-008
ITEM: TIMESTEP
	2080
ITEM: NUMBER OF ATOMS
	1
ITEM: BOX BOUNDS
	0	98
	0	102
	0	315
ITEM: ATOMS id type x y z V SIA fia1 fia2 radius time
	1	4	23.5	77	12.75	0	0	0	1	0.945477	1.14229e-008
ITEM: TIMESTEP
	2100
ITEM: NUMBER OF ATOMS
	1
ITEM: BOX BOUNDS
	0	98
	0	102
	0	315
ITEM: ATOMS id type x y z V SIA fia1 fia2 radius time
	1	4	23.5	78	12.25	0	0	0	1	0.945477	1.14303e-008
ITEM: TIMESTEP
	2120
ITEM: NUMBER OF ATOMS
	1
ITEM: BOX BOUNDS
	0	98
	0	102
	0	315
ITEM: ATOMS id type x y z V SIA fia1 fia2 radius time
	1	4	25.75	78.5	13	0	0	0	1	0.945477	1.14388e-008
ITEM: TIMESTEP
	2140
ITEM: NUMBER OF ATOMS
	1
ITEM: BOX BOUNDS
	0	98
	0	102
	0	315
ITEM: ATOMS id type x y z V SIA fia1 fia2 radius time
	1	4	25	79.75	12.5	0	0	0	1	0.945477	1.14459e-008
ITEM: TIMESTEP
	2160
ITEM: NUMBER OF ATOMS
	1
ITEM: BOX BOUNDS
	0	98
	0	102
	0	315
ITEM: ATOMS id type x y z V SIA fia1 fia2 radius time
	1	4	24.5	81	12.75	0	0	0	1	0.945477	1.14516e-008
ITEM: TIMESTEP
	2180
ITEM: NUMBER OF ATOMS
	1
ITEM: BOX BOUNDS
	0	98
	0	102
	0	315
ITEM: ATOMS id type x y z V SIA fia1 fia2 radius time
	1	4	25.25	81.5	13	0	0	0	1	0.945477	1.14611e-008
ITEM: TIMESTEP
	2200
ITEM: NUMBER OF ATOMS
	1
ITEM: BOX BOUNDS
	0	98
	0	102
	0	315
ITEM: ATOMS id type x y z V SIA fia1 fia2 radius time
	1	4	25	81.25	12.5	0	0	0	1	0.945477	1.14674e-008
ITEM: TIMESTEP
	2220
ITEM: NUMBER OF ATOMS
	1
ITEM: BOX BOUNDS
	0	98
	0	102
	0	315
ITEM: ATOMS id type x y z V SIA fia1 fia2 radius time
	1	4	24.5	81	12.25	0	0	0	1	0.945477	1.14738e-008
ITEM: TIMESTEP
	2240
ITEM: NUMBER OF ATOMS
	1
ITEM: BOX BOUNDS
	0	98
	0	102
	0	315
ITEM: ATOMS id type x y z V SIA fia1 fia2 radius time
	1	4	25.5	81	12.75	0	0	0	1	0.945477	1.14817e-008
ITEM: TIMESTEP
	2260
ITEM: NUMBER OF ATOMS
	1
ITEM: BOX BOUNDS
	0	98
	0	102
	0	315
ITEM: ATOMS id type x y z V SIA fia1 fia2 radius time
	1	4	28	81.25	13.5	0	0	0	1	0.945477	1.14882e-008
ITEM: TIMESTEP
	2280
ITEM: NUMBER OF ATOMS
	1
ITEM: BOX BOUNDS
	0	98
	0	102
	0	315
ITEM: ATOMS id type x y z V SIA fia1 fia2 radius time
	1	4	27	80.75	13.5	0	0	0	1	0.945477	1.14966e-008
ITEM: TIMESTEP
	2300
ITEM: NUMBER OF ATOMS
	1
ITEM: BOX BOUNDS
	0	98
	0	102
	0	315
ITEM: ATOMS id type x y z V SIA fia1 fia2 radius time
	1	4	27.5	80	12.75	0	0	0	1	0.945477	1.15022e-008
ITEM: TIMESTEP
	2320
ITEM: NUMBER OF ATOMS
	1
ITEM: BOX BOUNDS
	0	98
	0	102
	0	315
ITEM: ATOMS id type x y z V SIA fia1 fia2 radius time
	1	4	26.25	81.5	14	0	0	0	1	0.945477	1.15096e-008
ITEM: TIMESTEP
	2340
ITEM: NUMBER OF ATOMS
	1
ITEM: BOX BOUNDS
	0	98
	0	102
	0	315
ITEM: ATOMS id type x y z V SIA fia1 fia2 radius time
	1	4	25.5	82	15.25	0	0	0	1	0.945477	1.15176e-008
ITEM: TIMESTEP
	2360
ITEM: NUMBER OF ATOMS
	1
ITEM: BOX BOUNDS
	0	98
	0	102
	0	315
ITEM: ATOMS id type x y z V SIA fia1 fia2 radius time
	1	4	26.5	82	13.25	0	0	0	1	0.945477	1.15217e-008
ITEM: TIMESTEP
	2380
ITEM: NUMBER OF ATOMS
	1
ITEM: BOX BOUNDS
	0	98
	0	102
	0	315
ITEM: ATOMS id type x y z V SIA fia1 fia2 radius time
	1	4	27.75	83.5	12	0	0	0	1	0.945477	1.15284e-008
ITEM: TIMESTEP
	2400
ITEM: NUMBER OF ATOMS
	1
ITEM: BOX BOUNDS
	0	98
	0	102
	0	315
ITEM: ATOMS id type x y z V SIA fia1 fia2 radius time
	1	4	29.5	83	12.25	0	0	0	1	0.945477	1.15383e-008
ITEM: TIMESTEP
	2420
ITEM: NUMBER OF ATOMS
	1
ITEM: BOX BOUNDS
	0	98
	0	102
	0	315
ITEM: ATOMS id type x y z V SIA fia1 fia2 radius time
	1	4	28.75	83.5	12	0	0	0	1	0.945477	1.15438e-008
ITEM: TIMESTEP
	2440
ITEM: NUMBER OF ATOMS
	1
ITEM: BOX BOUNDS
	0	98
	0	102
	0	315
ITEM: ATOMS id type x y z V SIA fia1 fia2 radius time
	1	4	29	82.25	12.5	0	0	0	1	0.945477	1.15502e-008
ITEM: TIMESTEP
	2460
ITEM: NUMBER OF ATOMS
	1
ITEM: BOX BOUNDS
	0	98
	0	102
	0	315
ITEM: ATOMS id type x y z V SIA fia1 fia2 radius time
	1	4	28.75	82.5	13	0	0	0	1	0.945477	1.15591e-008
ITEM: TIMESTEP
	2480
ITEM: NUMBER OF ATOMS
	1
ITEM: BOX BOUNDS
	0	98
	0	102
	0	315
ITEM: ATOMS id type x y z V SIA fia1 fia2 radius time
	1	4	28.5	83	12.25	0	0	0	1	0.945477	1.15676e-008
ITEM: TIMESTEP
	2500
ITEM: NUMBER OF ATOMS
	1
ITEM: BOX BOUNDS
	0	98
	0	102
	0	315
ITEM: ATOMS id type x y z V SIA fia1 fia2 radius time
	1	4	28	82.75	12.5	0	0	0	1	0.945477	1.15765e-008
ITEM: TIMESTEP
	2520
ITEM: NUMBER OF ATOMS
	1
ITEM: BOX BOUNDS
	0	98
	0	102
	0	315
ITEM: ATOMS id type x y z V SIA fia1 fia2 radius time
	1	4	27.25	83.5	14	0	0	0	1	0.945477	1.15825e-008
ITEM: TIMESTEP
	2540
ITEM: NUMBER OF ATOMS
	1
ITEM: BOX BOUNDS
	0	98
	0	102
	0	315
ITEM: ATOMS id type x y z V SIA fia1 fia2 radius time
	1	4	27.25	83.5	14	0	0	0	1	0.945477	1.15895e-008
ITEM: TIMESTEP
	2560
ITEM: NUMBER OF ATOMS
	1
ITEM: BOX BOUNDS
	0	98
	0	102
	0	315
ITEM: ATOMS id type x y z V SIA fia1 fia2 radius time
	1	4	27.75	83.5	14	0	0	0	1	0.945477	1.15987e-008
ITEM: TIMESTEP
	2580
ITEM: NUMBER OF ATOMS
	1
ITEM: BOX BOUNDS
	0	98
	0	102
	0	315
ITEM: ATOMS id type x y z V SIA fia1 fia2 radius time
	1	4	26.75	83.5	15	0	0	0	1	0.945477	1.16051e-008
ITEM: TIMESTEP
	2600
ITEM: NUMBER OF ATOMS
	1
ITEM: BOX BOUNDS
	0	98
	0	102
	0	315
ITEM: ATOMS id type x y z V SIA fia1 fia2 radius time
	1	4	26.5	83	14.75	0	0	0	1	0.945477	1.16117e-008
ITEM: TIMESTEP
	2620
ITEM: NUMBER OF ATOMS
	1
ITEM: BOX BOUNDS
	0	98
	0	102
	0	315
ITEM: ATOMS id type x y z V SIA fia1 fia2 radius time
	1	4	26.75	82.5	14	0	0	0	1	0.945477	1.16169e-008
ITEM: TIMESTEP
	2640
ITEM: NUMBER OF ATOMS
	1
ITEM: BOX BOUNDS
	0	98
	0	102
	0	315
ITEM: ATOMS id type x y z V SIA fia1 fia2 radius time
	1	4	28.5	83	13.75	0	0	0	1	0.945477	1.16231e-008
ITEM: TIMESTEP
	2660
ITEM: NUMBER OF ATOMS
	1
ITEM: BOX BOUNDS
	0	98
	0	102
	0	315
ITEM: ATOMS id type x y z V SIA fia1 fia2 radius time
	1	4	27.25	82.5	13	0	0	0	1	0.945477	1.16291e-008
ITEM: TIMESTEP
	2680
ITEM: NUMBER OF ATOMS
	1
ITEM: BOX BOUNDS
	0	98
	0	102
	0	315
ITEM: ATOMS id type x y z V SIA fia1 fia2 radius time
	1	4	25.75	81.5	15	0	0	0	1	0.945477	1.16341e-008
ITEM: TIMESTEP
	2700
ITEM: NUMBER OF ATOMS
	1
ITEM: BOX BOUNDS
	0	98
	0	102
	0	315
ITEM: ATOMS id type x y z V SIA fia1 fia2 radius time
	1	4	24.5	81	14.25	0	0	0	1	0.945477	1.16414e-008
ITEM: TIMESTEP
	2720
ITEM: NUMBER OF ATOMS
	1
ITEM: BOX BOUNDS
	0	98
	0	102
	0	315
ITEM: ATOMS id type x y z V SIA fia1 fia2 radius time
	1	4	24.5	81	14.75	0	0	0	1	0.945477	1.16506e-008
ITEM: TIMESTEP
	2740
ITEM: NUMBER OF ATOMS
	1
ITEM: BOX BOUNDS
	0	98
	0	102
	0	315
ITEM: ATOMS id type x y z V SIA fia1 fia2 radius time
	1	4	26	80.75	14.5	0	0	0	1	0.945477	1.16588e-008
ITEM: TIMESTEP
	2760
ITEM: NUMBER OF ATOMS
	1
ITEM: BOX BOUNDS
	0	98
	0	102
	0	315
ITEM: ATOMS id type x y z V SIA fia1 fia2 radius time
	1	4	24	80.25	14.5	0	0	0	1	0.945477	1.16653e-008
ITEM: TIMESTEP
	2780
ITEM: NUMBER OF ATOMS
	1
ITEM: BOX BOUNDS
	0	98
	0	102
	0	315
ITEM: ATOMS id type x y z V SIA fia1 fia2 radius time
	1	4	23.75	80.5	15	0	0	0	1	0.945477	1.16726e-008
ITEM: TIMESTEP
	2800
ITEM: NUMBER OF ATOMS
	1
ITEM: BOX BOUNDS
	0	98
	0	102
	0	315
ITEM: ATOMS id type x y z V SIA fia1 fia2 radius time
	1	4	23.25	80.5	16	0	0	0	1	0.945477	1.16828e-008
ITEM: TIMESTEP
	2820
ITEM: NUMBER OF ATOMS
	1
ITEM: BOX BOUNDS
	0	98
	0	102
	0	315
ITEM: ATOMS id type x y z V SIA fia1 fia2 radius time
	1	4	24	79.75	16.5	0	0	0	1	0.945477	1.16899e-008
ITEM: TIMESTEP
	2840
ITEM: NUMBER OF ATOMS
	1
ITEM: BOX BOUNDS
	0	98
	0	102
	0	315
ITEM: ATOMS id type x y z V SIA fia1 fia2 radius time
	1	4	24	78.75	17.5	0	0	0	1	0.945477	1.16958e-008
ITEM: TIMESTEP
	2860
ITEM: NUMBER OF ATOMS
	1
ITEM: BOX BOUNDS
	0	98
	0	102
	0	315
ITEM: ATOMS id type x y z V SIA fia1 fia2 radius time
	1	4	23	79.25	17.5	0	0	0	1	0.945477	1.17003e-008
ITEM: TIMESTEP
	2880
ITEM: NUMBER OF ATOMS
	1
ITEM: BOX BOUNDS
	0	98
	0	102
	0	315
ITEM: ATOMS id type x y z V SIA fia1 fia2 radius time
	1	4	24.75	80.5	17	0	0	0	1	0.945477	1.17089e-008
ITEM: TIMESTEP
	2900
ITEM: NUMBER OF ATOMS
	1
ITEM: BOX BOUNDS
	0	98
	0	102
	0	315
ITEM: ATOMS id type x y z V SIA fia1 fia2 radius time
	1	4	23.5	82	16.75	0	0	0	1	0.945477	1.17181e-008
ITEM: TIMESTEP
	2920
ITEM: NUMBER OF ATOMS
	1
ITEM: BOX BOUNDS
	0	98
	0	102
	0	315
ITEM: ATOMS id type x y z V SIA fia1 fia2 radius time
	1	4	23.75	82.5	17	0	0	0	1	0.945477	1.17244e-008
ITEM: TIMESTEP
	2940
ITEM: NUMBER OF ATOMS
	1
ITEM: BOX BOUNDS
	0	98
	0	102
	0	315
ITEM: ATOMS id type x y z V SIA fia1 fia2 radius time
	1	4	23.5	83	18.75	0	0	0	1	0.945477	1.17334e-008
ITEM: TIMESTEP
	2960
ITEM: NUMBER OF ATOMS
	1
ITEM: BOX BOUNDS
	0	98
	0	102
	0	315
ITEM: ATOMS id type x y z V SIA fia1 fia2 radius time
	1	4	23.5	82	18.25	0	0	0	1	0.945477	1.17402e-008
ITEM: TIMESTEP
	2980
ITEM: NUMBER OF ATOMS
	1
ITEM: BOX BOUNDS
	0	98
	0	102
	0	315
ITEM: ATOMS id type x y z V SIA fia1 fia2 radius time
	1	4	23.25	81.5	19	0	0	0	1	0.945477	1.17483e-008
ITEM: TIMESTEP
	3000
ITEM: NUMBER OF ATOMS
	1
ITEM: BOX BOUNDS
	0	98
	0	102
	0	315
ITEM: ATOMS id type x y z V SIA fia1 fia2 radius time
	1	4	24	82.25	19.5	0	0	0	1	0.945477	1.17556e-008
ITEM: TIMESTEP
	3020
ITEM: NUMBER OF ATOMS
	1
ITEM: BOX BOUNDS
	0	98
	0	102
	0	315
ITEM: ATOMS id type x y z V SIA fia1 fia2 radius time
	1	4	24	81.75	19.5	0	0	0	1	0.945477	1.17624e-008
ITEM: TIMESTEP
	3040
ITEM: NUMBER OF ATOMS
	1
ITEM: BOX BOUNDS
	0	98
	0	102
	0	315
ITEM: ATOMS id type x y z V SIA fia1 fia2 radius time
	1	4	24.5	81	20.25	0	0	0	1	0.945477	1.17695e-008
ITEM: TIMESTEP
	3060
ITEM: NUMBER OF ATOMS
	1
ITEM: BOX BOUNDS
	0	98
	0	102
	0	315
ITEM: ATOMS id type x y z V SIA fia1 fia2 radius time
	1	4	25.5	81	20.75	0	0	0	1	0.945477	1.1776e-008
ITEM: TIMESTEP
	3080
ITEM: NUMBER OF ATOMS
	1
ITEM: BOX BOUNDS
	0	98
	0	102
	0	315
ITEM: ATOMS id type x y z V SIA fia1 fia2 radius time
	1	4	25.5	81	20.75	0	0	0	1	0.945477	1.17826e-008
ITEM: TIMESTEP
	3100
ITEM: NUMBER OF ATOMS
	1
ITEM: BOX BOUNDS
	0	98
	0	102
	0	315
ITEM: ATOMS id type x y z V SIA fia1 fia2 radius time
	1	4	26	81.25	19.5	0	0	0	1	0.945477	1.17896e-008
ITEM: TIMESTEP
	3120
ITEM: NUMBER OF ATOMS
	1
ITEM: BOX BOUNDS
	0	98
	0	102
	0	315
ITEM: ATOMS id type x y z V SIA fia1 fia2 radius time
	1	4	24.5	82	19.75	0	0	0	1	0.945477	1.17952e-008
ITEM: TIMESTEP
	3140
ITEM: NUMBER OF ATOMS
	1
ITEM: BOX BOUNDS
	0	98
	0	102
	0	315
ITEM: ATOMS id type x y z V SIA fia1 fia2 radius time
	1	4	27	82.25	20.5	0	0	0	1	0.945477	1.18048e-008
ITEM: TIMESTEP
	3160
ITEM: NUMBER OF ATOMS
	1
ITEM: BOX BOUNDS
	0	98
	0	102
	0	315
ITEM: ATOMS id type x y z V SIA fia1 fia2 radius time
	1	4	27.5	83	20.25	0	0	0	1	0.945477	1.18139e-008
ITEM: TIMESTEP
	3180
ITEM: NUMBER OF ATOMS
	1
ITEM: BOX BOUNDS
	0	98
	0	102
	0	315
ITEM: ATOMS id type x y z V SIA fia1 fia2 radius time
	1	4	28.5	81	20.75	0	0	0	1	0.945477	1.18205e-008
ITEM: TIMESTEP
	3200
ITEM: NUMBER OF ATOMS
	1
ITEM: BOX BOUNDS
	0	98
	0	102
	0	315
ITEM: ATOMS id type x y z V SIA fia1 fia2 radius time
	1	4	30	80.75	21.5	0	0	0	1	0.945477	1.18272e-008
ITEM: TIMESTEP
	3220
ITEM: NUMBER OF ATOMS
	1
ITEM: BOX BOUNDS
	0	98
	0	102
	0	315
ITEM: ATOMS id type x y z V SIA fia1 fia2 radius time
	1	4	29.25	81.5	21	0	0	0	1	0.945477	1.18358e-008
ITEM: TIMESTEP
	3240
ITEM: NUMBER OF ATOMS
	1